 Entering Gaussian System, Link 0=gdv
 Input=coh2_smt_321g_pb4d.gjf
 Output=coh2_smt_321g_pb4d.log
 Initial command:
 /sw/contrib/chem-src/gdv/j19/gdv/l1.exe "/tmp/Gau-42138.inp" -scrdir="/tmp" -exedir="/gscratch/chem/al777/neo_scf/exe-dir:/sw/contrib/chem-src/gdv/j19/gdv/bsd:/sw/contrib/chem-src/gdv/j19/gdv/local:/sw/contrib/chem-src/gdv/j19/gdv/extras:/sw/contrib/chem-src/gdv/j19/gdv"
 Entering Link 1 = /sw/contrib/chem-src/gdv/j19/gdv/l1.exe PID=     42139.
  
 Copyright (c) 1988-2021, Gaussian, Inc.  All Rights Reserved.
  
 This is the private, development version of
 the Gaussian(R) DV system of programs. It is based on
 the Gaussian(R) 16 system (copyright 2016, Gaussian, Inc.),
 the Gaussian(R) 09 system (copyright 2009, Gaussian, Inc.),
 the Gaussian(R) 03 system (copyright 2003, Gaussian, Inc.),
 the Gaussian(R) 98 system (copyright 1998, Gaussian, Inc.),
 the Gaussian(R) 94 system (copyright 1995, Gaussian, Inc.),
 the Gaussian 92(TM) system (copyright 1992, Gaussian, Inc.),
 the Gaussian 90(TM) system (copyright 1990, Gaussian, Inc.),
 the Gaussian 88(TM) system (copyright 1988, Gaussian, Inc.),
 the Gaussian 86(TM) system (copyright 1986, Carnegie Mellon
 University), and the Gaussian 82(TM) system (copyright 1983,
 Carnegie Mellon University). Gaussian is a federally registered
 trademark of Gaussian, Inc.
  
 This software contains proprietary and confidential information,
 including trade secrets, belonging to Gaussian, Inc.
  
 This software is provided under written license and may be
 used, copied, transmitted, or stored only in accord with that
 written license.
  
 The following legend is applicable only to US Government
 contracts under FAR:
  
                    RESTRICTED RIGHTS LEGEND
  
 Use, reproduction and disclosure by the US Government is
 subject to restrictions as set forth in subparagraphs (a)
 and (c) of the Commercial Computer Software - Restricted
 Rights clause in FAR 52.227-19.
  
 Gaussian, Inc.
 340 Quinnipiac St., Bldg. 40, Wallingford CT 06492
  
  
 ---------------------------------------------------------------
 Warning -- This program may not be used in any manner that
 competes with the business of Gaussian, Inc. or will provide
 assistance to any competitor of Gaussian, Inc.  The licensee
 of this program is prohibited from giving any competitor of
 Gaussian, Inc. access to this program.  By using this program,
 the user acknowledges that Gaussian, Inc. is engaged in the
 business of creating and licensing software in the field of
 computational chemistry and represents and warrants to the
 licensee that it is not a competitor of Gaussian, Inc. and that
 it will not use this program in any manner prohibited above.
 ---------------------------------------------------------------
  

 Cite this work as:
 Gaussian Development Version, Revision J.19,
 M. J. Frisch, G. W. Trucks, H. B. Schlegel, G. E. Scuseria, 
 M. A. Robb, J. R. Cheeseman, G. Scalmani, V. Barone, 
 G. A. Petersson, H. Nakatsuji, X. Li, A. V. Marenich, M. Caricato, 
 J. Bloino, B. G. Janesko, J. Zheng, R. Gomperts, B. Mennucci, 
 H. P. Hratchian, J. V. Ortiz, A. F. Izmaylov, J. L. Sonnenberg, 
 D. Williams-Young, F. Ding, F. Lipparini, F. Egidi, J. Goings, 
 B. Peng, A. Petrone, T. Henderson, D. Ranasinghe, V. G. Zakrzewski, 
 J. Gao, N. Rega, G. Zheng, W. Liang, M. Hada, M. Ehara, K. Toyota, 
 R. Fukuda, J. Hasegawa, M. Ishida, T. Nakajima, Y. Honda, O. Kitao, 
 H. Nakai, T. Vreven, K. Throssell, J. A. Montgomery, Jr., 
 J. E. Peralta, F. Ogliaro, M. J. Bearpark, J. J. Heyd, 
 E. N. Brothers, K. N. Kudin, V. N. Staroverov, T. A. Keith, 
 R. Kobayashi, J. Normand, K. Raghavachari, A. P. Rendell, 
 J. C. Burant, S. S. Iyengar, J. Tomasi, M. Cossi, J. M. Millam, 
 M. Klene, C. Adamo, R. Cammi, J. W. Ochterski, R. L. Martin, 
 K. Morokuma, O. Farkas, J. B. Foresman, and D. J. Fox, 
 Gaussian, Inc., Wallingford CT, 2020.
 
 ******************************************
 Gaussian DV:  ES64L-GDVRevJ.19 27-Nov-2021
                17-Jun-2022 
 ******************************************
 %mem=170gb
 %nproc=40
 Will use up to   40 processors via shared memory.
 ----------------------------------------------------------------------
 #p rhf/3-21g test neo=gen gfinput guess=print # iop(5/73=0,5/81=0) nos
 ymm
 ----------------------------------------------------------------------
 1/37=210000000,38=1,172=1/1;
 2/12=2,15=1/2;
 3/5=5,11=1,24=10,25=1,30=1,116=1,187=7/1,2,3;
 4/10=1/1;
 5/5=2,38=5/2;
 6/7=2,8=2,9=2,10=2,28=1/1;
 99/5=1,9=1/99;
 Leave Link    1 at Fri Jun 17 23:34:43 2022, MaxMem= 22817013760 cpu:               0.3 elap:               0.0
 (Enter /sw/contrib/chem-src/gdv/j19/gdv/l101.exe)
 ----
 h2co
 ----
 Symbolic Z-matrix:
 Charge =  0 Multiplicity = 1
 c                     0.        0.        0. 
 o                     0.        0.        1.22 
 h                     0.93531   0.       -0.54 
 h                    -0.93531   0.       -0.54 
 
 ITRead=  0  0  0  0
 MicOpt= -1 -1 -1 -1
 NAtoms=      4 NQM=        4 NQMF=       0 NMMI=      0 NMMIF=      0
                NMic=       0 NMicF=      0.
                    Isotopes and Nuclear Properties:
 (Nuclear quadrupole moments (NQMom) in fm**2, nuclear magnetic moments (NMagM)
  in nuclear magnetons)

  Atom         1           2           3           4
 IAtWgt=          12          16           1           1
 AtmWgt=  12.0000000  15.9949146   1.0078250   1.0078250
 NucSpn=           0           0           1           1
 AtZEff=  -0.0000000  -0.0000000  -0.0000000  -0.0000000
 NQMom=    0.0000000   0.0000000   0.0000000   0.0000000
 NMagM=    0.0000000   0.0000000   2.7928460   2.7928460
 AtZNuc=   6.0000000   8.0000000   1.0000000   1.0000000
 Leave Link  101 at Fri Jun 17 23:34:43 2022, MaxMem= 22817013760 cpu:               0.4 elap:               0.1
 (Enter /sw/contrib/chem-src/gdv/j19/gdv/l202.exe)
                          Input orientation:                          
 ---------------------------------------------------------------------
 Center     Atomic      Atomic             Coordinates (Angstroms)
 Number     Number       Type             X           Y           Z
 ---------------------------------------------------------------------
      1          6           0        0.000000   -0.000000    0.000000
      2          8           0       -0.000000    0.000000    1.220000
      3          1           0        0.935307   -0.000000   -0.540000
      4          1           0       -0.935307    0.000000   -0.540000
 ---------------------------------------------------------------------
                    Distance matrix (angstroms):
                    1          2          3          4
     1  C    0.000000
     2  O    1.220000   0.000000
     3  H    1.080000   1.993088   0.000000
     4  H    1.080000   1.993088   1.870614   0.000000
 Symmetry turned off by external request.
 Stoichiometry    CH2O
 Framework group  C2V[C2(CO),SGV(H2)]
 Deg. of freedom     3
 Full point group                 C2V     NOp   4
 Rotational constants (GHZ):         286.6115524          38.6312366          34.0427492
 Leave Link  202 at Fri Jun 17 23:34:43 2022, MaxMem= 22817013760 cpu:               0.4 elap:               0.0
 (Enter /sw/contrib/chem-src/gdv/j19/gdv/l301.exe)
 Standard basis: 3-21G (6D, 7F)
 Ernie: Thresh=  0.10000D-02 Tol=  0.10000D-05 Strict=F.
 AO basis set in the form of general basis input (Overlap normalization):
      1 0
 S   3 1.00       0.000000000000
      0.1722560000D+03  0.6176690738D-01
      0.2591090000D+02  0.3587940429D+00
      0.5533350000D+01  0.7007130837D+00
 SP   2 1.00       0.000000000000
      0.3664980000D+01 -0.3958951621D+00  0.2364599466D+00
      0.7705450000D+00  0.1215834356D+01  0.8606188057D+00
 SP   1 1.00       0.000000000000
      0.1958570000D+00  0.1000000000D+01  0.1000000000D+01
 ****
      2 0
 S   3 1.00       0.000000000000
      0.3220370000D+03  0.5923939339D-01
      0.4843080000D+02  0.3514999608D+00
      0.1042060000D+02  0.7076579210D+00
 SP   2 1.00       0.000000000000
      0.7402940000D+01 -0.4044535832D+00  0.2445861070D+00
      0.1576200000D+01  0.1221561761D+01  0.8539553735D+00
 SP   1 1.00       0.000000000000
      0.3736840000D+00  0.1000000000D+01  0.1000000000D+01
 ****
      3 0
 S   2 1.00       0.000000000000
      0.5447178000D+01  0.1562849787D+00
      0.8245472400D+00  0.9046908767D+00
 S   1 1.00       0.000000000000
      0.1831915800D+00  0.1000000000D+01
 ****
      4 0
 S   2 1.00       0.000000000000
      0.5447178000D+01  0.1562849787D+00
      0.8245472400D+00  0.9046908767D+00
 S   1 1.00       0.000000000000
      0.1831915800D+00  0.1000000000D+01
 ****
  
 General NEO basis read from cards:  (5D, 7F)
 Centers:       3
 S 1 1.00
     Exponent=  3.1997000000D+01 Coefficients=  1.0000000000D+00
 S 1 1.00
     Exponent=  1.6010000000D+01 Coefficients=  1.0000000000D+00
 S 1 1.00
     Exponent=  8.7340000000D+00 Coefficients=  1.0000000000D+00
 S 1 1.00
     Exponent=  1.9570000000D+00 Coefficients=  1.0000000000D+00
 P 1 1.00
     Exponent=  2.4028000000D+01 Coefficients=  1.0000000000D+00
 P 1 1.00
     Exponent=  1.3795000000D+01 Coefficients=  1.0000000000D+00
 P 1 1.00
     Exponent=  9.4380000000D+00 Coefficients=  1.0000000000D+00
 D 1 1.00
     Exponent=  1.9016000000D+01 Coefficients=  1.0000000000D+00
 D 1 1.00
     Exponent=  1.0524000000D+01 Coefficients=  1.0000000000D+00
 ****
 Centers:       4
 S 1 1.00
     Exponent=  3.1997000000D+01 Coefficients=  1.0000000000D+00
 S 1 1.00
     Exponent=  1.6010000000D+01 Coefficients=  1.0000000000D+00
 S 1 1.00
     Exponent=  8.7340000000D+00 Coefficients=  1.0000000000D+00
 S 1 1.00
     Exponent=  1.9570000000D+00 Coefficients=  1.0000000000D+00
 P 1 1.00
     Exponent=  2.4028000000D+01 Coefficients=  1.0000000000D+00
 P 1 1.00
     Exponent=  1.3795000000D+01 Coefficients=  1.0000000000D+00
 P 1 1.00
     Exponent=  9.4380000000D+00 Coefficients=  1.0000000000D+00
 D 1 1.00
     Exponent=  1.9016000000D+01 Coefficients=  1.0000000000D+00
 D 1 1.00
     Exponent=  1.0524000000D+01 Coefficients=  1.0000000000D+00
 ****
    46 NEO functions
 NEO basis set in the form of general basis input (Overlap normalization):
      3 0
 S   1 1.00       0.000000000000
      0.3199700000D+02  0.1000000000D+01
 S   1 1.00       0.000000000000
      0.1601000000D+02  0.1000000000D+01
 S   1 1.00       0.000000000000
      0.8734000000D+01  0.1000000000D+01
 S   1 1.00       0.000000000000
      0.1957000000D+01  0.1000000000D+01
 P   1 1.00       0.000000000000
      0.2402800000D+02  0.1000000000D+01
 P   1 1.00       0.000000000000
      0.1379500000D+02  0.1000000000D+01
 P   1 1.00       0.000000000000
      0.9438000000D+01  0.1000000000D+01
 D   1 1.00       0.000000000000
      0.1901600000D+02  0.1000000000D+01
 D   1 1.00       0.000000000000
      0.1052400000D+02  0.1000000000D+01
 ****
      4 0
 S   1 1.00       0.000000000000
      0.3199700000D+02  0.1000000000D+01
 S   1 1.00       0.000000000000
      0.1601000000D+02  0.1000000000D+01
 S   1 1.00       0.000000000000
      0.8734000000D+01  0.1000000000D+01
 S   1 1.00       0.000000000000
      0.1957000000D+01  0.1000000000D+01
 P   1 1.00       0.000000000000
      0.2402800000D+02  0.1000000000D+01
 P   1 1.00       0.000000000000
      0.1379500000D+02  0.1000000000D+01
 P   1 1.00       0.000000000000
      0.9438000000D+01  0.1000000000D+01
 D   1 1.00       0.000000000000
      0.1901600000D+02  0.1000000000D+01
 D   1 1.00       0.000000000000
      0.1052400000D+02  0.1000000000D+01
 ****
  
 Using NEO mass 1836.152656 electrons.
    22 basis functions,    36 primitive gaussians,    50 cartesian basis functions
     8 alpha electrons        8 beta electrons
       nuclear repulsion energy        20.8200869870 Hartrees.
 IExCor=         0 DFT=F Ex=HF Corr=None N6=None ScaHFX=  1.000000
 ScaDFX=  1.000000  1.000000  1.000000  1.000000  1.000000  0.000000
 ScaDFX=  0.000000  0.000000  0.000000  0.000000  0.000000  0.000000
 IRadAn=      5 IRanWt=     -1 IRanGd=            0 ICorTp=0 IEmpDi=  4
 NAtoms=    4 NActive=    4 NUniq=    4 SFac= 1.00D+00 NAtFMM=   60 NAOKFM=F Big=F
 Integral buffers will be    131072 words long.
 Raffenetti 1 integral format.
 Two-electron integral symmetry is turned off.
 Leave Link  301 at Fri Jun 17 23:34:44 2022, MaxMem= 22817013760 cpu:               0.3 elap:               0.1
 (Enter /sw/contrib/chem-src/gdv/j19/gdv/l302.exe)
 NPDir=0 NMtPBC=     1 NCelOv=     1 NCel=       1 NClECP=     1 NCelD=      1
         NCelK=      1 NCelE2=     1 NClLst=     1 CellRange=     0.0.
 One-electron integrals computed using PRISM.
 NBasis=    22 RedAO= T EigKep=  4.21D-02  NBF=    22
 NBsUse=    22 1.00D-06 EigRej= -1.00D+00 NBFU=    22
 NEO NBasis=    46 RedAO= T EigKep=  7.07D-03  NBF=    46
 NEO NBsUse=    46 1.00D-06 EigRej= -1.00D+00 NBFU=    46
 Leave Link  302 at Fri Jun 17 23:34:44 2022, MaxMem= 22817013760 cpu:               2.3 elap:               0.1
 (Enter /sw/contrib/chem-src/gdv/j19/gdv/l303.exe)
 DipDrv:  MaxL=1.
 Leave Link  303 at Fri Jun 17 23:34:44 2022, MaxMem= 22817013760 cpu:               0.5 elap:               0.0
 (Enter /sw/contrib/chem-src/gdv/j19/gdv/l401.exe)
 Initial guess wavefunction:
 ExpMin= 1.83D-01 ExpMax= 3.22D+02 ExpMxC= 3.22D+02 IAcc=3 IRadAn=         5 AccDes= 0.00D+00
 Harris functional with IExCor= 2005 and IRadAn=       5 diagonalized for initial guess.
 NQNuc=    2 RNQ=      2.00
 HarFok:  IExCor=    2005 AccDes= 0.00D+00 IRadAn=         5 IDoV= 1 UseB2=F ITyADJ=14 ICtDFT=  3500011
 FoFCou: FMM=F IPFlag=           0 FMFlag=      100000 FMFlg1=           0
         NFxFlg=           0 DoJE=T BraDBF=F KetDBF=T FulRan=T
         wScrn=  0.000000 ICntrl=       500 IOpCl=  0 I1Cent=   200000004 NGrid=           0
         NMat0=    1 NMatS0=      1 NMatT0=    0 NMatD0=    1 NMtDS0=    0 NMtDT0=    0
 Symmetry not used in FoFCou.
 Harris En= -136.119022233623    
 JPrj=0 DoOrth=F DoCkMO=F.
 Guess MO coefficients:
                 1             2             3             4             5 
      1   0.116902D-03  0.983398D+00 -0.120274D+00 -0.184158D+00  0.000000D+00
      2   0.869893D-04  0.110714D+00  0.132074D+00  0.212072D+00  0.000000D+00
      3   0.000000D+00  0.000000D+00  0.000000D+00  0.000000D+00  0.408945D+00
      4   0.000000D+00  0.000000D+00  0.000000D+00  0.000000D+00  0.000000D+00
      5   0.248923D-02  0.118587D-02  0.166242D+00 -0.168935D+00  0.000000D+00
      6   0.200855D-01 -0.529566D-01  0.129821D+00  0.523161D+00  0.000000D+00
      7   0.000000D+00  0.000000D+00  0.000000D+00  0.000000D+00  0.299927D+00
      8   0.000000D+00  0.000000D+00  0.000000D+00  0.000000D+00  0.000000D+00
      9   0.150480D-01  0.838316D-02 -0.354535D-01 -0.118865D+00  0.000000D+00
     10   0.981179D+00  0.383921D-03 -0.216438D+00  0.101173D+00  0.000000D+00
     11   0.110918D+00  0.697207D-03  0.207417D+00 -0.988144D-01  0.000000D+00
     12   0.000000D+00  0.000000D+00  0.000000D+00  0.000000D+00  0.259040D+00
     13   0.000000D+00  0.000000D+00  0.000000D+00  0.000000D+00  0.000000D+00
     14  -0.353521D-02  0.136876D-02 -0.147568D+00 -0.117144D+00  0.000000D+00
     15  -0.543001D-01 -0.105966D-02  0.647541D+00 -0.380214D+00  0.000000D+00
     16   0.000000D+00  0.000000D+00  0.000000D+00  0.000000D+00  0.214394D+00
     17   0.000000D+00  0.000000D+00  0.000000D+00  0.000000D+00  0.000000D+00
     18   0.139624D-01  0.565816D-02 -0.131391D+00 -0.940158D-01  0.000000D+00
     19  -0.101145D-02 -0.340111D-02  0.251199D-01  0.159017D+00  0.163323D+00
     20   0.340873D-03  0.154672D-01 -0.155920D-01  0.385634D-01  0.743272D-01
     21  -0.101145D-02 -0.340111D-02  0.251199D-01  0.159017D+00 -0.163323D+00
     22   0.340873D-03  0.154672D-01 -0.155920D-01  0.385634D-01 -0.743272D-01
                 6             7             8             9            10 
      1   0.946349D-02  0.000000D+00  0.000000D+00  0.000000D+00 -0.144393D+00
      2  -0.314415D-01  0.000000D+00  0.000000D+00  0.000000D+00  0.127335D+00
      3   0.000000D+00  0.000000D+00 -0.196121D+00  0.000000D+00  0.000000D+00
      4   0.000000D+00  0.303436D+00  0.000000D+00  0.493440D+00  0.000000D+00
      5  -0.347652D+00  0.000000D+00  0.000000D+00  0.000000D+00 -0.227280D+00
      6   0.809034D-01  0.000000D+00  0.000000D+00  0.000000D+00  0.169196D+01
      7   0.000000D+00  0.000000D+00 -0.213836D-01  0.000000D+00  0.000000D+00
      8   0.000000D+00  0.253300D+00  0.000000D+00  0.572537D+00  0.000000D+00
      9  -0.959567D-01  0.000000D+00  0.000000D+00  0.000000D+00 -0.693372D+00
     10  -0.899324D-01  0.000000D+00  0.000000D+00  0.000000D+00 -0.461855D-02
     11   0.754741D-01  0.000000D+00  0.000000D+00  0.000000D+00 -0.559663D-02
     12   0.000000D+00  0.000000D+00  0.492370D+00  0.000000D+00  0.000000D+00
     13   0.000000D+00  0.447736D+00  0.000000D+00 -0.366254D+00  0.000000D+00
     14   0.439594D+00  0.000000D+00  0.000000D+00  0.000000D+00  0.392911D-01
     15   0.365418D+00  0.000000D+00  0.000000D+00  0.000000D+00  0.999487D-01
     16   0.000000D+00  0.000000D+00  0.524592D+00  0.000000D+00  0.000000D+00
     17   0.000000D+00  0.429391D+00  0.000000D+00 -0.465858D+00  0.000000D+00
     18   0.391482D+00  0.000000D+00  0.000000D+00  0.000000D+00  0.245483D-01
     19   0.796791D-01  0.000000D+00 -0.171159D+00  0.000000D+00 -0.108522D+00
     20   0.724147D-01  0.000000D+00 -0.244205D+00  0.000000D+00 -0.127473D+01
     21   0.796791D-01  0.000000D+00  0.171159D+00  0.000000D+00 -0.108522D+00
     22   0.724147D-01  0.000000D+00  0.244205D+00  0.000000D+00 -0.127473D+01
                11            12            13            14            15 
      1   0.000000D+00 -0.934473D-01  0.000000D+00  0.647856D-01  0.000000D+00
      2   0.000000D+00  0.256198D-01  0.000000D+00 -0.135525D+00  0.000000D+00
      3  -0.502016D+00  0.000000D+00  0.000000D+00  0.000000D+00 -0.835455D+00
      4   0.000000D+00  0.000000D+00 -0.102734D+01  0.000000D+00  0.000000D+00
      5   0.000000D+00  0.192156D+00  0.000000D+00 -0.107268D+01  0.000000D+00
      6   0.000000D+00  0.120096D+01  0.000000D+00 -0.528610D+00  0.000000D+00
      7  -0.125658D+01  0.000000D+00  0.000000D+00  0.000000D+00  0.217937D+01
      8   0.000000D+00  0.000000D+00  0.108802D+01  0.000000D+00  0.000000D+00
      9   0.000000D+00  0.147975D+01  0.000000D+00  0.110366D+01  0.000000D+00
     10   0.000000D+00  0.129848D+00  0.000000D+00 -0.420749D-01  0.000000D+00
     11   0.000000D+00 -0.667141D-01  0.000000D+00  0.734691D-01  0.000000D+00
     12   0.146673D+00  0.000000D+00  0.000000D+00  0.000000D+00 -0.292427D+00
     13   0.000000D+00  0.000000D+00 -0.490878D-01  0.000000D+00  0.000000D+00
     14   0.000000D+00  0.255966D+00  0.000000D+00 -0.345160D+00  0.000000D+00
     15   0.000000D+00 -0.147720D+01  0.000000D+00 -0.176351D+00  0.000000D+00
     16   0.296762D+00  0.000000D+00  0.000000D+00  0.000000D+00 -0.224365D+00
     17   0.000000D+00  0.000000D+00 -0.144073D+00  0.000000D+00  0.000000D+00
     18   0.000000D+00  0.732142D+00  0.000000D+00 -0.261599D+00  0.000000D+00
     19   0.549374D-01 -0.102507D-01  0.000000D+00  0.204262D+00 -0.331434D+00
     20   0.143530D+01  0.373053D-01  0.000000D+00  0.231594D+00 -0.868312D+00
     21  -0.549374D-01 -0.102507D-01  0.000000D+00  0.204262D+00  0.331434D+00
     22  -0.143530D+01  0.373053D-01  0.000000D+00  0.231594D+00  0.868312D+00
                16            17            18            19            20 
      1   0.351221D-01  0.000000D+00  0.587404D-01  0.000000D+00  0.740658D-03
      2   0.408009D+00  0.000000D+00 -0.138769D+01  0.000000D+00  0.102111D+01
      3   0.000000D+00  0.644266D+00  0.000000D+00  0.000000D+00  0.000000D+00
      4   0.000000D+00  0.000000D+00  0.000000D+00  0.892304D-02  0.000000D+00
      5   0.342643D+00  0.000000D+00  0.327622D+00  0.000000D+00  0.142501D+00
      6  -0.329277D+00  0.000000D+00  0.276399D+01  0.000000D+00 -0.871734D+00
      7   0.000000D+00 -0.893608D+00  0.000000D+00  0.000000D+00  0.000000D+00
      8   0.000000D+00  0.000000D+00  0.000000D+00 -0.336270D+00  0.000000D+00
      9  -0.615836D-01  0.000000D+00 -0.389495D+00  0.000000D+00  0.288813D+00
     10  -0.450657D-02  0.000000D+00  0.331231D-01  0.000000D+00  0.576849D-01
     11   0.491590D-01  0.000000D+00 -0.994890D-01  0.000000D+00 -0.216360D+00
     12   0.000000D+00 -0.206787D+00  0.000000D+00  0.000000D+00  0.000000D+00
     13   0.000000D+00  0.000000D+00  0.000000D+00 -0.101096D+01  0.000000D+00
     14   0.672047D-01  0.000000D+00 -0.512125D+00  0.000000D+00 -0.819082D+00
     15   0.539429D-01  0.000000D+00 -0.363211D+00  0.000000D+00 -0.232893D-01
     16   0.000000D+00  0.205696D+00  0.000000D+00  0.000000D+00  0.000000D+00
     17   0.000000D+00  0.000000D+00  0.000000D+00  0.111937D+01  0.000000D+00
     18   0.554961D-01  0.000000D+00  0.698747D+00  0.000000D+00  0.115826D+01
     19   0.869619D+00 -0.837755D+00  0.166823D+00  0.000000D+00 -0.124310D+00
     20  -0.557834D+00  0.124366D+01 -0.967989D+00  0.000000D+00  0.437396D+00
     21   0.869619D+00  0.837755D+00  0.166823D+00  0.000000D+00 -0.124310D+00
     22  -0.557834D+00 -0.124366D+01 -0.967989D+00  0.000000D+00  0.437396D+00
                21            22 
      1   0.000000D+00  0.100507D-01
      2   0.000000D+00 -0.770235D-01
      3   0.102114D+00  0.000000D+00
      4   0.000000D+00  0.000000D+00
      5   0.000000D+00 -0.279705D+00
      6   0.000000D+00 -0.119096D+01
      7  -0.122903D+01  0.000000D+00
      8   0.000000D+00  0.000000D+00
      9   0.000000D+00 -0.784685D+00
     10   0.000000D+00  0.666332D-01
     11   0.000000D+00 -0.169890D+01
     12  -0.963608D+00  0.000000D+00
     13   0.000000D+00  0.000000D+00
     14   0.000000D+00  0.259381D+00
     15   0.000000D+00  0.253152D+01
     16   0.131666D+01  0.000000D+00
     17   0.000000D+00  0.000000D+00
     18   0.000000D+00 -0.972615D+00
     19   0.327332D+00  0.874265D-01
     20   0.392099D+00 -0.713321D-02
     21  -0.327332D+00  0.874265D-01
     22  -0.392099D+00 -0.713321D-02
 Guess NEO coefficients:
                 1             2             3             4             5 
      1   0.281048D+01 -0.159939D-05 -0.311845D+01  0.117775D+01 -0.874106D-01
      2  -0.311845D+01  0.473766D-05  0.730171D+01 -0.432898D+01  0.517736D+00
      3   0.117775D+01 -0.434292D-05 -0.432898D+01  0.457430D+01 -0.101023D+01
      4  -0.874106D-01  0.158303D-05  0.517736D+00 -0.101023D+01  0.137934D+01
      5   0.000000D+00  0.000000D+00  0.000000D+00  0.000000D+00  0.000000D+00
      6   0.000000D+00  0.000000D+00  0.000000D+00  0.000000D+00  0.000000D+00
      7   0.000000D+00  0.000000D+00  0.000000D+00  0.000000D+00  0.000000D+00
      8   0.000000D+00  0.000000D+00  0.000000D+00  0.000000D+00  0.000000D+00
      9   0.000000D+00  0.000000D+00  0.000000D+00  0.000000D+00  0.000000D+00
     10   0.000000D+00  0.000000D+00  0.000000D+00  0.000000D+00  0.000000D+00
     11   0.000000D+00  0.000000D+00  0.000000D+00  0.000000D+00  0.000000D+00
     12   0.000000D+00  0.000000D+00  0.000000D+00  0.000000D+00  0.000000D+00
     13   0.000000D+00  0.000000D+00  0.000000D+00  0.000000D+00  0.000000D+00
     14   0.000000D+00  0.000000D+00  0.000000D+00  0.000000D+00  0.000000D+00
     15   0.000000D+00  0.000000D+00  0.000000D+00  0.000000D+00  0.000000D+00
     16   0.000000D+00  0.000000D+00  0.000000D+00  0.000000D+00  0.000000D+00
     17   0.000000D+00  0.000000D+00  0.000000D+00  0.000000D+00  0.000000D+00
     18   0.000000D+00  0.000000D+00  0.000000D+00  0.000000D+00  0.000000D+00
     19   0.000000D+00  0.000000D+00  0.000000D+00  0.000000D+00  0.000000D+00
     20   0.000000D+00  0.000000D+00  0.000000D+00  0.000000D+00  0.000000D+00
     21   0.000000D+00  0.000000D+00  0.000000D+00  0.000000D+00  0.000000D+00
     22   0.000000D+00  0.000000D+00  0.000000D+00  0.000000D+00  0.000000D+00
     23   0.000000D+00  0.000000D+00  0.000000D+00  0.000000D+00  0.000000D+00
     24  -0.159939D-05  0.281048D+01  0.473766D-05 -0.434292D-05  0.158303D-05
     25   0.473766D-05 -0.311845D+01 -0.157680D-04  0.162034D-04 -0.740683D-05
     26  -0.434292D-05  0.117775D+01  0.162034D-04 -0.185622D-04  0.103160D-04
     27   0.158303D-05 -0.874106D-01 -0.740683D-05  0.103160D-04 -0.769809D-05
     28   0.000000D+00  0.000000D+00  0.000000D+00  0.000000D+00  0.000000D+00
     29   0.000000D+00  0.000000D+00  0.000000D+00  0.000000D+00  0.000000D+00
     30   0.000000D+00  0.000000D+00  0.000000D+00  0.000000D+00  0.000000D+00
     31   0.000000D+00  0.000000D+00  0.000000D+00  0.000000D+00  0.000000D+00
     32   0.000000D+00  0.000000D+00  0.000000D+00  0.000000D+00  0.000000D+00
     33   0.000000D+00  0.000000D+00  0.000000D+00  0.000000D+00  0.000000D+00
     34   0.000000D+00  0.000000D+00  0.000000D+00  0.000000D+00  0.000000D+00
     35   0.000000D+00  0.000000D+00  0.000000D+00  0.000000D+00  0.000000D+00
     36   0.000000D+00  0.000000D+00  0.000000D+00  0.000000D+00  0.000000D+00
     37   0.000000D+00  0.000000D+00  0.000000D+00  0.000000D+00  0.000000D+00
     38   0.000000D+00  0.000000D+00  0.000000D+00  0.000000D+00  0.000000D+00
     39   0.000000D+00  0.000000D+00  0.000000D+00  0.000000D+00  0.000000D+00
     40   0.000000D+00  0.000000D+00  0.000000D+00  0.000000D+00  0.000000D+00
     41   0.000000D+00  0.000000D+00  0.000000D+00  0.000000D+00  0.000000D+00
     42   0.000000D+00  0.000000D+00  0.000000D+00  0.000000D+00  0.000000D+00
     43   0.000000D+00  0.000000D+00  0.000000D+00  0.000000D+00  0.000000D+00
     44   0.000000D+00  0.000000D+00  0.000000D+00  0.000000D+00  0.000000D+00
     45   0.000000D+00  0.000000D+00  0.000000D+00  0.000000D+00  0.000000D+00
     46   0.000000D+00  0.000000D+00  0.000000D+00  0.000000D+00  0.000000D+00
                 6             7             8             9            10 
      1   0.000000D+00  0.000000D+00  0.000000D+00  0.000000D+00  0.000000D+00
      2   0.000000D+00  0.000000D+00  0.000000D+00  0.000000D+00  0.000000D+00
      3   0.000000D+00  0.000000D+00  0.000000D+00  0.000000D+00  0.000000D+00
      4   0.000000D+00  0.000000D+00  0.000000D+00  0.000000D+00  0.000000D+00
      5   0.272870D+01  0.000000D+00  0.000000D+00 -0.313182D+01  0.000000D+00
      6   0.000000D+00  0.272870D+01  0.000000D+00  0.000000D+00 -0.313182D+01
      7   0.000000D+00  0.000000D+00  0.272870D+01  0.000000D+00  0.000000D+00
      8  -0.313182D+01  0.000000D+00  0.000000D+00  0.774663D+01  0.000000D+00
      9   0.000000D+00 -0.313182D+01  0.000000D+00  0.000000D+00  0.774663D+01
     10   0.000000D+00  0.000000D+00 -0.313182D+01  0.000000D+00  0.000000D+00
     11   0.120620D+01  0.000000D+00  0.000000D+00 -0.443763D+01  0.000000D+00
     12   0.000000D+00  0.120620D+01  0.000000D+00  0.000000D+00 -0.443763D+01
     13   0.000000D+00  0.000000D+00  0.120620D+01  0.000000D+00  0.000000D+00
     14   0.000000D+00  0.000000D+00  0.000000D+00  0.000000D+00  0.000000D+00
     15   0.000000D+00  0.000000D+00  0.000000D+00  0.000000D+00  0.000000D+00
     16   0.000000D+00  0.000000D+00  0.000000D+00  0.000000D+00  0.000000D+00
     17   0.000000D+00  0.000000D+00  0.000000D+00  0.000000D+00  0.000000D+00
     18   0.000000D+00  0.000000D+00  0.000000D+00  0.000000D+00  0.000000D+00
     19   0.000000D+00  0.000000D+00  0.000000D+00  0.000000D+00  0.000000D+00
     20   0.000000D+00  0.000000D+00  0.000000D+00  0.000000D+00  0.000000D+00
     21   0.000000D+00  0.000000D+00  0.000000D+00  0.000000D+00  0.000000D+00
     22   0.000000D+00  0.000000D+00  0.000000D+00  0.000000D+00  0.000000D+00
     23   0.000000D+00  0.000000D+00  0.000000D+00  0.000000D+00  0.000000D+00
     24   0.000000D+00  0.000000D+00  0.000000D+00  0.000000D+00  0.000000D+00
     25   0.000000D+00  0.000000D+00  0.000000D+00  0.000000D+00  0.000000D+00
     26   0.000000D+00  0.000000D+00  0.000000D+00  0.000000D+00  0.000000D+00
     27   0.000000D+00  0.000000D+00  0.000000D+00  0.000000D+00  0.000000D+00
     28   0.000000D+00  0.000000D+00  0.000000D+00  0.000000D+00  0.000000D+00
     29   0.000000D+00  0.000000D+00  0.000000D+00  0.000000D+00  0.000000D+00
     30   0.000000D+00  0.000000D+00  0.000000D+00  0.000000D+00  0.000000D+00
     31   0.000000D+00  0.000000D+00  0.000000D+00  0.000000D+00  0.000000D+00
     32   0.000000D+00  0.000000D+00  0.000000D+00  0.000000D+00  0.000000D+00
     33   0.000000D+00  0.000000D+00  0.000000D+00  0.000000D+00  0.000000D+00
     34   0.000000D+00  0.000000D+00  0.000000D+00  0.000000D+00  0.000000D+00
     35   0.000000D+00  0.000000D+00  0.000000D+00  0.000000D+00  0.000000D+00
     36   0.000000D+00  0.000000D+00  0.000000D+00  0.000000D+00  0.000000D+00
     37   0.000000D+00  0.000000D+00  0.000000D+00  0.000000D+00  0.000000D+00
     38   0.000000D+00  0.000000D+00  0.000000D+00  0.000000D+00  0.000000D+00
     39   0.000000D+00  0.000000D+00  0.000000D+00  0.000000D+00  0.000000D+00
     40   0.000000D+00  0.000000D+00  0.000000D+00  0.000000D+00  0.000000D+00
     41   0.000000D+00  0.000000D+00  0.000000D+00  0.000000D+00  0.000000D+00
     42   0.000000D+00  0.000000D+00  0.000000D+00  0.000000D+00  0.000000D+00
     43   0.000000D+00  0.000000D+00  0.000000D+00  0.000000D+00  0.000000D+00
     44   0.000000D+00  0.000000D+00  0.000000D+00  0.000000D+00  0.000000D+00
     45   0.000000D+00  0.000000D+00  0.000000D+00  0.000000D+00  0.000000D+00
     46   0.000000D+00  0.000000D+00  0.000000D+00  0.000000D+00  0.000000D+00
                11            12            13            14            15 
      1   0.000000D+00  0.000000D+00  0.000000D+00  0.000000D+00  0.000000D+00
      2   0.000000D+00  0.000000D+00  0.000000D+00  0.000000D+00  0.000000D+00
      3   0.000000D+00  0.000000D+00  0.000000D+00  0.000000D+00  0.000000D+00
      4   0.000000D+00  0.000000D+00  0.000000D+00  0.000000D+00  0.000000D+00
      5   0.000000D+00  0.120620D+01  0.000000D+00  0.000000D+00  0.000000D+00
      6   0.000000D+00  0.000000D+00  0.120620D+01  0.000000D+00  0.000000D+00
      7  -0.313182D+01  0.000000D+00  0.000000D+00  0.120620D+01  0.000000D+00
      8   0.000000D+00 -0.443763D+01  0.000000D+00  0.000000D+00  0.000000D+00
      9   0.000000D+00  0.000000D+00 -0.443763D+01  0.000000D+00  0.000000D+00
     10   0.774663D+01  0.000000D+00  0.000000D+00 -0.443763D+01  0.000000D+00
     11   0.000000D+00  0.408307D+01  0.000000D+00  0.000000D+00  0.000000D+00
     12   0.000000D+00  0.000000D+00  0.408307D+01  0.000000D+00  0.000000D+00
     13  -0.443763D+01  0.000000D+00  0.000000D+00  0.408307D+01  0.000000D+00
     14   0.000000D+00  0.000000D+00  0.000000D+00  0.000000D+00  0.170241D+01
     15   0.000000D+00  0.000000D+00  0.000000D+00  0.000000D+00  0.000000D+00
     16   0.000000D+00  0.000000D+00  0.000000D+00  0.000000D+00  0.000000D+00
     17   0.000000D+00  0.000000D+00  0.000000D+00  0.000000D+00  0.000000D+00
     18   0.000000D+00  0.000000D+00  0.000000D+00  0.000000D+00  0.000000D+00
     19   0.000000D+00  0.000000D+00  0.000000D+00  0.000000D+00 -0.969157D+00
     20   0.000000D+00  0.000000D+00  0.000000D+00  0.000000D+00  0.000000D+00
     21   0.000000D+00  0.000000D+00  0.000000D+00  0.000000D+00  0.000000D+00
     22   0.000000D+00  0.000000D+00  0.000000D+00  0.000000D+00  0.000000D+00
     23   0.000000D+00  0.000000D+00  0.000000D+00  0.000000D+00  0.000000D+00
     24   0.000000D+00  0.000000D+00  0.000000D+00  0.000000D+00  0.000000D+00
     25   0.000000D+00  0.000000D+00  0.000000D+00  0.000000D+00  0.000000D+00
     26   0.000000D+00  0.000000D+00  0.000000D+00  0.000000D+00  0.000000D+00
     27   0.000000D+00  0.000000D+00  0.000000D+00  0.000000D+00  0.000000D+00
     28   0.000000D+00  0.000000D+00  0.000000D+00  0.000000D+00  0.000000D+00
     29   0.000000D+00  0.000000D+00  0.000000D+00  0.000000D+00  0.000000D+00
     30   0.000000D+00  0.000000D+00  0.000000D+00  0.000000D+00  0.000000D+00
     31   0.000000D+00  0.000000D+00  0.000000D+00  0.000000D+00  0.000000D+00
     32   0.000000D+00  0.000000D+00  0.000000D+00  0.000000D+00  0.000000D+00
     33   0.000000D+00  0.000000D+00  0.000000D+00  0.000000D+00  0.000000D+00
     34   0.000000D+00  0.000000D+00  0.000000D+00  0.000000D+00  0.000000D+00
     35   0.000000D+00  0.000000D+00  0.000000D+00  0.000000D+00  0.000000D+00
     36   0.000000D+00  0.000000D+00  0.000000D+00  0.000000D+00  0.000000D+00
     37   0.000000D+00  0.000000D+00  0.000000D+00  0.000000D+00  0.000000D+00
     38   0.000000D+00  0.000000D+00  0.000000D+00  0.000000D+00  0.000000D+00
     39   0.000000D+00  0.000000D+00  0.000000D+00  0.000000D+00  0.000000D+00
     40   0.000000D+00  0.000000D+00  0.000000D+00  0.000000D+00  0.000000D+00
     41   0.000000D+00  0.000000D+00  0.000000D+00  0.000000D+00  0.000000D+00
     42   0.000000D+00  0.000000D+00  0.000000D+00  0.000000D+00  0.000000D+00
     43   0.000000D+00  0.000000D+00  0.000000D+00  0.000000D+00  0.000000D+00
     44   0.000000D+00  0.000000D+00  0.000000D+00  0.000000D+00  0.000000D+00
     45   0.000000D+00  0.000000D+00  0.000000D+00  0.000000D+00  0.000000D+00
     46   0.000000D+00  0.000000D+00  0.000000D+00  0.000000D+00  0.000000D+00
                16            17            18            19            20 
      1   0.000000D+00  0.000000D+00  0.000000D+00  0.000000D+00  0.000000D+00
      2   0.000000D+00  0.000000D+00  0.000000D+00  0.000000D+00  0.000000D+00
      3   0.000000D+00  0.000000D+00  0.000000D+00  0.000000D+00  0.000000D+00
      4   0.000000D+00  0.000000D+00  0.000000D+00  0.000000D+00  0.000000D+00
      5   0.000000D+00  0.000000D+00  0.000000D+00  0.000000D+00  0.000000D+00
      6   0.000000D+00  0.000000D+00  0.000000D+00  0.000000D+00  0.000000D+00
      7   0.000000D+00  0.000000D+00  0.000000D+00  0.000000D+00  0.000000D+00
      8   0.000000D+00  0.000000D+00  0.000000D+00  0.000000D+00  0.000000D+00
      9   0.000000D+00  0.000000D+00  0.000000D+00  0.000000D+00  0.000000D+00
     10   0.000000D+00  0.000000D+00  0.000000D+00  0.000000D+00  0.000000D+00
     11   0.000000D+00  0.000000D+00  0.000000D+00  0.000000D+00  0.000000D+00
     12   0.000000D+00  0.000000D+00  0.000000D+00  0.000000D+00  0.000000D+00
     13   0.000000D+00  0.000000D+00  0.000000D+00  0.000000D+00  0.000000D+00
     14   0.000000D+00  0.000000D+00  0.000000D+00  0.000000D+00 -0.969157D+00
     15   0.170241D+01  0.000000D+00  0.000000D+00  0.000000D+00  0.000000D+00
     16   0.000000D+00  0.170241D+01  0.000000D+00  0.000000D+00  0.000000D+00
     17   0.000000D+00  0.000000D+00  0.170241D+01  0.000000D+00  0.000000D+00
     18   0.000000D+00  0.000000D+00  0.000000D+00  0.170241D+01  0.000000D+00
     19   0.000000D+00  0.000000D+00  0.000000D+00  0.000000D+00  0.170241D+01
     20  -0.969157D+00  0.000000D+00  0.000000D+00  0.000000D+00  0.000000D+00
     21   0.000000D+00 -0.969157D+00  0.000000D+00  0.000000D+00  0.000000D+00
     22   0.000000D+00  0.000000D+00 -0.969157D+00  0.000000D+00  0.000000D+00
     23   0.000000D+00  0.000000D+00  0.000000D+00 -0.969157D+00  0.000000D+00
     24   0.000000D+00  0.000000D+00  0.000000D+00  0.000000D+00  0.000000D+00
     25   0.000000D+00  0.000000D+00  0.000000D+00  0.000000D+00  0.000000D+00
     26   0.000000D+00  0.000000D+00  0.000000D+00  0.000000D+00  0.000000D+00
     27   0.000000D+00  0.000000D+00  0.000000D+00  0.000000D+00  0.000000D+00
     28   0.000000D+00  0.000000D+00  0.000000D+00  0.000000D+00  0.000000D+00
     29   0.000000D+00  0.000000D+00  0.000000D+00  0.000000D+00  0.000000D+00
     30   0.000000D+00  0.000000D+00  0.000000D+00  0.000000D+00  0.000000D+00
     31   0.000000D+00  0.000000D+00  0.000000D+00  0.000000D+00  0.000000D+00
     32   0.000000D+00  0.000000D+00  0.000000D+00  0.000000D+00  0.000000D+00
     33   0.000000D+00  0.000000D+00  0.000000D+00  0.000000D+00  0.000000D+00
     34   0.000000D+00  0.000000D+00  0.000000D+00  0.000000D+00  0.000000D+00
     35   0.000000D+00  0.000000D+00  0.000000D+00  0.000000D+00  0.000000D+00
     36   0.000000D+00  0.000000D+00  0.000000D+00  0.000000D+00  0.000000D+00
     37   0.000000D+00  0.000000D+00  0.000000D+00  0.000000D+00  0.000000D+00
     38   0.000000D+00  0.000000D+00  0.000000D+00  0.000000D+00  0.000000D+00
     39   0.000000D+00  0.000000D+00  0.000000D+00  0.000000D+00  0.000000D+00
     40   0.000000D+00  0.000000D+00  0.000000D+00  0.000000D+00  0.000000D+00
     41   0.000000D+00  0.000000D+00  0.000000D+00  0.000000D+00  0.000000D+00
     42   0.000000D+00  0.000000D+00  0.000000D+00  0.000000D+00  0.000000D+00
     43   0.000000D+00  0.000000D+00  0.000000D+00  0.000000D+00  0.000000D+00
     44   0.000000D+00  0.000000D+00  0.000000D+00  0.000000D+00  0.000000D+00
     45   0.000000D+00  0.000000D+00  0.000000D+00  0.000000D+00  0.000000D+00
     46   0.000000D+00  0.000000D+00  0.000000D+00  0.000000D+00  0.000000D+00
                21            22            23            24            25 
      1   0.000000D+00  0.000000D+00  0.000000D+00  0.000000D+00  0.473766D-05
      2   0.000000D+00  0.000000D+00  0.000000D+00  0.000000D+00 -0.157680D-04
      3   0.000000D+00  0.000000D+00  0.000000D+00  0.000000D+00  0.162034D-04
      4   0.000000D+00  0.000000D+00  0.000000D+00  0.000000D+00 -0.740683D-05
      5   0.000000D+00  0.000000D+00  0.000000D+00  0.000000D+00  0.000000D+00
      6   0.000000D+00  0.000000D+00  0.000000D+00  0.000000D+00  0.000000D+00
      7   0.000000D+00  0.000000D+00  0.000000D+00  0.000000D+00  0.000000D+00
      8   0.000000D+00  0.000000D+00  0.000000D+00  0.000000D+00  0.000000D+00
      9   0.000000D+00  0.000000D+00  0.000000D+00  0.000000D+00  0.000000D+00
     10   0.000000D+00  0.000000D+00  0.000000D+00  0.000000D+00  0.000000D+00
     11   0.000000D+00  0.000000D+00  0.000000D+00  0.000000D+00  0.000000D+00
     12   0.000000D+00  0.000000D+00  0.000000D+00  0.000000D+00  0.000000D+00
     13   0.000000D+00  0.000000D+00  0.000000D+00  0.000000D+00  0.000000D+00
     14   0.000000D+00  0.000000D+00  0.000000D+00  0.000000D+00  0.000000D+00
     15  -0.969157D+00  0.000000D+00  0.000000D+00  0.000000D+00  0.000000D+00
     16   0.000000D+00 -0.969157D+00  0.000000D+00  0.000000D+00  0.000000D+00
     17   0.000000D+00  0.000000D+00 -0.969157D+00  0.000000D+00  0.000000D+00
     18   0.000000D+00  0.000000D+00  0.000000D+00 -0.969157D+00  0.000000D+00
     19   0.000000D+00  0.000000D+00  0.000000D+00  0.000000D+00  0.000000D+00
     20   0.170241D+01  0.000000D+00  0.000000D+00  0.000000D+00  0.000000D+00
     21   0.000000D+00  0.170241D+01  0.000000D+00  0.000000D+00  0.000000D+00
     22   0.000000D+00  0.000000D+00  0.170241D+01  0.000000D+00  0.000000D+00
     23   0.000000D+00  0.000000D+00  0.000000D+00  0.170241D+01  0.000000D+00
     24   0.000000D+00  0.000000D+00  0.000000D+00  0.000000D+00 -0.311845D+01
     25   0.000000D+00  0.000000D+00  0.000000D+00  0.000000D+00  0.730171D+01
     26   0.000000D+00  0.000000D+00  0.000000D+00  0.000000D+00 -0.432898D+01
     27   0.000000D+00  0.000000D+00  0.000000D+00  0.000000D+00  0.517736D+00
     28   0.000000D+00  0.000000D+00  0.000000D+00  0.000000D+00  0.000000D+00
     29   0.000000D+00  0.000000D+00  0.000000D+00  0.000000D+00  0.000000D+00
     30   0.000000D+00  0.000000D+00  0.000000D+00  0.000000D+00  0.000000D+00
     31   0.000000D+00  0.000000D+00  0.000000D+00  0.000000D+00  0.000000D+00
     32   0.000000D+00  0.000000D+00  0.000000D+00  0.000000D+00  0.000000D+00
     33   0.000000D+00  0.000000D+00  0.000000D+00  0.000000D+00  0.000000D+00
     34   0.000000D+00  0.000000D+00  0.000000D+00  0.000000D+00  0.000000D+00
     35   0.000000D+00  0.000000D+00  0.000000D+00  0.000000D+00  0.000000D+00
     36   0.000000D+00  0.000000D+00  0.000000D+00  0.000000D+00  0.000000D+00
     37   0.000000D+00  0.000000D+00  0.000000D+00  0.000000D+00  0.000000D+00
     38   0.000000D+00  0.000000D+00  0.000000D+00  0.000000D+00  0.000000D+00
     39   0.000000D+00  0.000000D+00  0.000000D+00  0.000000D+00  0.000000D+00
     40   0.000000D+00  0.000000D+00  0.000000D+00  0.000000D+00  0.000000D+00
     41   0.000000D+00  0.000000D+00  0.000000D+00  0.000000D+00  0.000000D+00
     42   0.000000D+00  0.000000D+00  0.000000D+00  0.000000D+00  0.000000D+00
     43   0.000000D+00  0.000000D+00  0.000000D+00  0.000000D+00  0.000000D+00
     44   0.000000D+00  0.000000D+00  0.000000D+00  0.000000D+00  0.000000D+00
     45   0.000000D+00  0.000000D+00  0.000000D+00  0.000000D+00  0.000000D+00
     46   0.000000D+00  0.000000D+00  0.000000D+00  0.000000D+00  0.000000D+00
                26            27            28            29            30 
      1  -0.434292D-05  0.158303D-05  0.000000D+00  0.000000D+00  0.000000D+00
      2   0.162034D-04 -0.740683D-05  0.000000D+00  0.000000D+00  0.000000D+00
      3  -0.185622D-04  0.103160D-04  0.000000D+00  0.000000D+00  0.000000D+00
      4   0.103160D-04 -0.769809D-05  0.000000D+00  0.000000D+00  0.000000D+00
      5   0.000000D+00  0.000000D+00  0.000000D+00  0.000000D+00  0.000000D+00
      6   0.000000D+00  0.000000D+00  0.000000D+00  0.000000D+00  0.000000D+00
      7   0.000000D+00  0.000000D+00  0.000000D+00  0.000000D+00  0.000000D+00
      8   0.000000D+00  0.000000D+00  0.000000D+00  0.000000D+00  0.000000D+00
      9   0.000000D+00  0.000000D+00  0.000000D+00  0.000000D+00  0.000000D+00
     10   0.000000D+00  0.000000D+00  0.000000D+00  0.000000D+00  0.000000D+00
     11   0.000000D+00  0.000000D+00  0.000000D+00  0.000000D+00  0.000000D+00
     12   0.000000D+00  0.000000D+00  0.000000D+00  0.000000D+00  0.000000D+00
     13   0.000000D+00  0.000000D+00  0.000000D+00  0.000000D+00  0.000000D+00
     14   0.000000D+00  0.000000D+00  0.000000D+00  0.000000D+00  0.000000D+00
     15   0.000000D+00  0.000000D+00  0.000000D+00  0.000000D+00  0.000000D+00
     16   0.000000D+00  0.000000D+00  0.000000D+00  0.000000D+00  0.000000D+00
     17   0.000000D+00  0.000000D+00  0.000000D+00  0.000000D+00  0.000000D+00
     18   0.000000D+00  0.000000D+00  0.000000D+00  0.000000D+00  0.000000D+00
     19   0.000000D+00  0.000000D+00  0.000000D+00  0.000000D+00  0.000000D+00
     20   0.000000D+00  0.000000D+00  0.000000D+00  0.000000D+00  0.000000D+00
     21   0.000000D+00  0.000000D+00  0.000000D+00  0.000000D+00  0.000000D+00
     22   0.000000D+00  0.000000D+00  0.000000D+00  0.000000D+00  0.000000D+00
     23   0.000000D+00  0.000000D+00  0.000000D+00  0.000000D+00  0.000000D+00
     24   0.117775D+01 -0.874106D-01  0.000000D+00  0.000000D+00  0.000000D+00
     25  -0.432898D+01  0.517736D+00  0.000000D+00  0.000000D+00  0.000000D+00
     26   0.457430D+01 -0.101023D+01  0.000000D+00  0.000000D+00  0.000000D+00
     27  -0.101023D+01  0.137934D+01  0.000000D+00  0.000000D+00  0.000000D+00
     28   0.000000D+00  0.000000D+00  0.272870D+01  0.000000D+00  0.000000D+00
     29   0.000000D+00  0.000000D+00  0.000000D+00  0.272870D+01  0.000000D+00
     30   0.000000D+00  0.000000D+00  0.000000D+00  0.000000D+00  0.272870D+01
     31   0.000000D+00  0.000000D+00 -0.313182D+01  0.000000D+00  0.000000D+00
     32   0.000000D+00  0.000000D+00  0.000000D+00 -0.313182D+01  0.000000D+00
     33   0.000000D+00  0.000000D+00  0.000000D+00  0.000000D+00 -0.313182D+01
     34   0.000000D+00  0.000000D+00  0.120620D+01  0.000000D+00  0.000000D+00
     35   0.000000D+00  0.000000D+00  0.000000D+00  0.120620D+01  0.000000D+00
     36   0.000000D+00  0.000000D+00  0.000000D+00  0.000000D+00  0.120620D+01
     37   0.000000D+00  0.000000D+00  0.000000D+00  0.000000D+00  0.000000D+00
     38   0.000000D+00  0.000000D+00  0.000000D+00  0.000000D+00  0.000000D+00
     39   0.000000D+00  0.000000D+00  0.000000D+00  0.000000D+00  0.000000D+00
     40   0.000000D+00  0.000000D+00  0.000000D+00  0.000000D+00  0.000000D+00
     41   0.000000D+00  0.000000D+00  0.000000D+00  0.000000D+00  0.000000D+00
     42   0.000000D+00  0.000000D+00  0.000000D+00  0.000000D+00  0.000000D+00
     43   0.000000D+00  0.000000D+00  0.000000D+00  0.000000D+00  0.000000D+00
     44   0.000000D+00  0.000000D+00  0.000000D+00  0.000000D+00  0.000000D+00
     45   0.000000D+00  0.000000D+00  0.000000D+00  0.000000D+00  0.000000D+00
     46   0.000000D+00  0.000000D+00  0.000000D+00  0.000000D+00  0.000000D+00
                31            32            33            34            35 
      1   0.000000D+00  0.000000D+00  0.000000D+00  0.000000D+00  0.000000D+00
      2   0.000000D+00  0.000000D+00  0.000000D+00  0.000000D+00  0.000000D+00
      3   0.000000D+00  0.000000D+00  0.000000D+00  0.000000D+00  0.000000D+00
      4   0.000000D+00  0.000000D+00  0.000000D+00  0.000000D+00  0.000000D+00
      5   0.000000D+00  0.000000D+00  0.000000D+00  0.000000D+00  0.000000D+00
      6   0.000000D+00  0.000000D+00  0.000000D+00  0.000000D+00  0.000000D+00
      7   0.000000D+00  0.000000D+00  0.000000D+00  0.000000D+00  0.000000D+00
      8   0.000000D+00  0.000000D+00  0.000000D+00  0.000000D+00  0.000000D+00
      9   0.000000D+00  0.000000D+00  0.000000D+00  0.000000D+00  0.000000D+00
     10   0.000000D+00  0.000000D+00  0.000000D+00  0.000000D+00  0.000000D+00
     11   0.000000D+00  0.000000D+00  0.000000D+00  0.000000D+00  0.000000D+00
     12   0.000000D+00  0.000000D+00  0.000000D+00  0.000000D+00  0.000000D+00
     13   0.000000D+00  0.000000D+00  0.000000D+00  0.000000D+00  0.000000D+00
     14   0.000000D+00  0.000000D+00  0.000000D+00  0.000000D+00  0.000000D+00
     15   0.000000D+00  0.000000D+00  0.000000D+00  0.000000D+00  0.000000D+00
     16   0.000000D+00  0.000000D+00  0.000000D+00  0.000000D+00  0.000000D+00
     17   0.000000D+00  0.000000D+00  0.000000D+00  0.000000D+00  0.000000D+00
     18   0.000000D+00  0.000000D+00  0.000000D+00  0.000000D+00  0.000000D+00
     19   0.000000D+00  0.000000D+00  0.000000D+00  0.000000D+00  0.000000D+00
     20   0.000000D+00  0.000000D+00  0.000000D+00  0.000000D+00  0.000000D+00
     21   0.000000D+00  0.000000D+00  0.000000D+00  0.000000D+00  0.000000D+00
     22   0.000000D+00  0.000000D+00  0.000000D+00  0.000000D+00  0.000000D+00
     23   0.000000D+00  0.000000D+00  0.000000D+00  0.000000D+00  0.000000D+00
     24   0.000000D+00  0.000000D+00  0.000000D+00  0.000000D+00  0.000000D+00
     25   0.000000D+00  0.000000D+00  0.000000D+00  0.000000D+00  0.000000D+00
     26   0.000000D+00  0.000000D+00  0.000000D+00  0.000000D+00  0.000000D+00
     27   0.000000D+00  0.000000D+00  0.000000D+00  0.000000D+00  0.000000D+00
     28  -0.313182D+01  0.000000D+00  0.000000D+00  0.120620D+01  0.000000D+00
     29   0.000000D+00 -0.313182D+01  0.000000D+00  0.000000D+00  0.120620D+01
     30   0.000000D+00  0.000000D+00 -0.313182D+01  0.000000D+00  0.000000D+00
     31   0.774663D+01  0.000000D+00  0.000000D+00 -0.443763D+01  0.000000D+00
     32   0.000000D+00  0.774663D+01  0.000000D+00  0.000000D+00 -0.443763D+01
     33   0.000000D+00  0.000000D+00  0.774663D+01  0.000000D+00  0.000000D+00
     34  -0.443763D+01  0.000000D+00  0.000000D+00  0.408307D+01  0.000000D+00
     35   0.000000D+00 -0.443763D+01  0.000000D+00  0.000000D+00  0.408307D+01
     36   0.000000D+00  0.000000D+00 -0.443763D+01  0.000000D+00  0.000000D+00
     37   0.000000D+00  0.000000D+00  0.000000D+00  0.000000D+00  0.000000D+00
     38   0.000000D+00  0.000000D+00  0.000000D+00  0.000000D+00  0.000000D+00
     39   0.000000D+00  0.000000D+00  0.000000D+00  0.000000D+00  0.000000D+00
     40   0.000000D+00  0.000000D+00  0.000000D+00  0.000000D+00  0.000000D+00
     41   0.000000D+00  0.000000D+00  0.000000D+00  0.000000D+00  0.000000D+00
     42   0.000000D+00  0.000000D+00  0.000000D+00  0.000000D+00  0.000000D+00
     43   0.000000D+00  0.000000D+00  0.000000D+00  0.000000D+00  0.000000D+00
     44   0.000000D+00  0.000000D+00  0.000000D+00  0.000000D+00  0.000000D+00
     45   0.000000D+00  0.000000D+00  0.000000D+00  0.000000D+00  0.000000D+00
     46   0.000000D+00  0.000000D+00  0.000000D+00  0.000000D+00  0.000000D+00
                36            37            38            39            40 
      1   0.000000D+00  0.000000D+00  0.000000D+00  0.000000D+00  0.000000D+00
      2   0.000000D+00  0.000000D+00  0.000000D+00  0.000000D+00  0.000000D+00
      3   0.000000D+00  0.000000D+00  0.000000D+00  0.000000D+00  0.000000D+00
      4   0.000000D+00  0.000000D+00  0.000000D+00  0.000000D+00  0.000000D+00
      5   0.000000D+00  0.000000D+00  0.000000D+00  0.000000D+00  0.000000D+00
      6   0.000000D+00  0.000000D+00  0.000000D+00  0.000000D+00  0.000000D+00
      7   0.000000D+00  0.000000D+00  0.000000D+00  0.000000D+00  0.000000D+00
      8   0.000000D+00  0.000000D+00  0.000000D+00  0.000000D+00  0.000000D+00
      9   0.000000D+00  0.000000D+00  0.000000D+00  0.000000D+00  0.000000D+00
     10   0.000000D+00  0.000000D+00  0.000000D+00  0.000000D+00  0.000000D+00
     11   0.000000D+00  0.000000D+00  0.000000D+00  0.000000D+00  0.000000D+00
     12   0.000000D+00  0.000000D+00  0.000000D+00  0.000000D+00  0.000000D+00
     13   0.000000D+00  0.000000D+00  0.000000D+00  0.000000D+00  0.000000D+00
     14   0.000000D+00  0.000000D+00  0.000000D+00  0.000000D+00  0.000000D+00
     15   0.000000D+00  0.000000D+00  0.000000D+00  0.000000D+00  0.000000D+00
     16   0.000000D+00  0.000000D+00  0.000000D+00  0.000000D+00  0.000000D+00
     17   0.000000D+00  0.000000D+00  0.000000D+00  0.000000D+00  0.000000D+00
     18   0.000000D+00  0.000000D+00  0.000000D+00  0.000000D+00  0.000000D+00
     19   0.000000D+00  0.000000D+00  0.000000D+00  0.000000D+00  0.000000D+00
     20   0.000000D+00  0.000000D+00  0.000000D+00  0.000000D+00  0.000000D+00
     21   0.000000D+00  0.000000D+00  0.000000D+00  0.000000D+00  0.000000D+00
     22   0.000000D+00  0.000000D+00  0.000000D+00  0.000000D+00  0.000000D+00
     23   0.000000D+00  0.000000D+00  0.000000D+00  0.000000D+00  0.000000D+00
     24   0.000000D+00  0.000000D+00  0.000000D+00  0.000000D+00  0.000000D+00
     25   0.000000D+00  0.000000D+00  0.000000D+00  0.000000D+00  0.000000D+00
     26   0.000000D+00  0.000000D+00  0.000000D+00  0.000000D+00  0.000000D+00
     27   0.000000D+00  0.000000D+00  0.000000D+00  0.000000D+00  0.000000D+00
     28   0.000000D+00  0.000000D+00  0.000000D+00  0.000000D+00  0.000000D+00
     29   0.000000D+00  0.000000D+00  0.000000D+00  0.000000D+00  0.000000D+00
     30   0.120620D+01  0.000000D+00  0.000000D+00  0.000000D+00  0.000000D+00
     31   0.000000D+00  0.000000D+00  0.000000D+00  0.000000D+00  0.000000D+00
     32   0.000000D+00  0.000000D+00  0.000000D+00  0.000000D+00  0.000000D+00
     33  -0.443763D+01  0.000000D+00  0.000000D+00  0.000000D+00  0.000000D+00
     34   0.000000D+00  0.000000D+00  0.000000D+00  0.000000D+00  0.000000D+00
     35   0.000000D+00  0.000000D+00  0.000000D+00  0.000000D+00  0.000000D+00
     36   0.408307D+01  0.000000D+00  0.000000D+00  0.000000D+00  0.000000D+00
     37   0.000000D+00  0.170241D+01  0.000000D+00  0.000000D+00  0.000000D+00
     38   0.000000D+00  0.000000D+00  0.170241D+01  0.000000D+00  0.000000D+00
     39   0.000000D+00  0.000000D+00  0.000000D+00  0.170241D+01  0.000000D+00
     40   0.000000D+00  0.000000D+00  0.000000D+00  0.000000D+00  0.170241D+01
     41   0.000000D+00  0.000000D+00  0.000000D+00  0.000000D+00  0.000000D+00
     42   0.000000D+00 -0.969157D+00  0.000000D+00  0.000000D+00  0.000000D+00
     43   0.000000D+00  0.000000D+00 -0.969157D+00  0.000000D+00  0.000000D+00
     44   0.000000D+00  0.000000D+00  0.000000D+00 -0.969157D+00  0.000000D+00
     45   0.000000D+00  0.000000D+00  0.000000D+00  0.000000D+00 -0.969157D+00
     46   0.000000D+00  0.000000D+00  0.000000D+00  0.000000D+00  0.000000D+00
                41            42            43            44            45 
      1   0.000000D+00  0.000000D+00  0.000000D+00  0.000000D+00  0.000000D+00
      2   0.000000D+00  0.000000D+00  0.000000D+00  0.000000D+00  0.000000D+00
      3   0.000000D+00  0.000000D+00  0.000000D+00  0.000000D+00  0.000000D+00
      4   0.000000D+00  0.000000D+00  0.000000D+00  0.000000D+00  0.000000D+00
      5   0.000000D+00  0.000000D+00  0.000000D+00  0.000000D+00  0.000000D+00
      6   0.000000D+00  0.000000D+00  0.000000D+00  0.000000D+00  0.000000D+00
      7   0.000000D+00  0.000000D+00  0.000000D+00  0.000000D+00  0.000000D+00
      8   0.000000D+00  0.000000D+00  0.000000D+00  0.000000D+00  0.000000D+00
      9   0.000000D+00  0.000000D+00  0.000000D+00  0.000000D+00  0.000000D+00
     10   0.000000D+00  0.000000D+00  0.000000D+00  0.000000D+00  0.000000D+00
     11   0.000000D+00  0.000000D+00  0.000000D+00  0.000000D+00  0.000000D+00
     12   0.000000D+00  0.000000D+00  0.000000D+00  0.000000D+00  0.000000D+00
     13   0.000000D+00  0.000000D+00  0.000000D+00  0.000000D+00  0.000000D+00
     14   0.000000D+00  0.000000D+00  0.000000D+00  0.000000D+00  0.000000D+00
     15   0.000000D+00  0.000000D+00  0.000000D+00  0.000000D+00  0.000000D+00
     16   0.000000D+00  0.000000D+00  0.000000D+00  0.000000D+00  0.000000D+00
     17   0.000000D+00  0.000000D+00  0.000000D+00  0.000000D+00  0.000000D+00
     18   0.000000D+00  0.000000D+00  0.000000D+00  0.000000D+00  0.000000D+00
     19   0.000000D+00  0.000000D+00  0.000000D+00  0.000000D+00  0.000000D+00
     20   0.000000D+00  0.000000D+00  0.000000D+00  0.000000D+00  0.000000D+00
     21   0.000000D+00  0.000000D+00  0.000000D+00  0.000000D+00  0.000000D+00
     22   0.000000D+00  0.000000D+00  0.000000D+00  0.000000D+00  0.000000D+00
     23   0.000000D+00  0.000000D+00  0.000000D+00  0.000000D+00  0.000000D+00
     24   0.000000D+00  0.000000D+00  0.000000D+00  0.000000D+00  0.000000D+00
     25   0.000000D+00  0.000000D+00  0.000000D+00  0.000000D+00  0.000000D+00
     26   0.000000D+00  0.000000D+00  0.000000D+00  0.000000D+00  0.000000D+00
     27   0.000000D+00  0.000000D+00  0.000000D+00  0.000000D+00  0.000000D+00
     28   0.000000D+00  0.000000D+00  0.000000D+00  0.000000D+00  0.000000D+00
     29   0.000000D+00  0.000000D+00  0.000000D+00  0.000000D+00  0.000000D+00
     30   0.000000D+00  0.000000D+00  0.000000D+00  0.000000D+00  0.000000D+00
     31   0.000000D+00  0.000000D+00  0.000000D+00  0.000000D+00  0.000000D+00
     32   0.000000D+00  0.000000D+00  0.000000D+00  0.000000D+00  0.000000D+00
     33   0.000000D+00  0.000000D+00  0.000000D+00  0.000000D+00  0.000000D+00
     34   0.000000D+00  0.000000D+00  0.000000D+00  0.000000D+00  0.000000D+00
     35   0.000000D+00  0.000000D+00  0.000000D+00  0.000000D+00  0.000000D+00
     36   0.000000D+00  0.000000D+00  0.000000D+00  0.000000D+00  0.000000D+00
     37   0.000000D+00 -0.969157D+00  0.000000D+00  0.000000D+00  0.000000D+00
     38   0.000000D+00  0.000000D+00 -0.969157D+00  0.000000D+00  0.000000D+00
     39   0.000000D+00  0.000000D+00  0.000000D+00 -0.969157D+00  0.000000D+00
     40   0.000000D+00  0.000000D+00  0.000000D+00  0.000000D+00 -0.969157D+00
     41   0.170241D+01  0.000000D+00  0.000000D+00  0.000000D+00  0.000000D+00
     42   0.000000D+00  0.170241D+01  0.000000D+00  0.000000D+00  0.000000D+00
     43   0.000000D+00  0.000000D+00  0.170241D+01  0.000000D+00  0.000000D+00
     44   0.000000D+00  0.000000D+00  0.000000D+00  0.170241D+01  0.000000D+00
     45   0.000000D+00  0.000000D+00  0.000000D+00  0.000000D+00  0.170241D+01
     46  -0.969157D+00  0.000000D+00  0.000000D+00  0.000000D+00  0.000000D+00
                46 
      1   0.000000D+00
      2   0.000000D+00
      3   0.000000D+00
      4   0.000000D+00
      5   0.000000D+00
      6   0.000000D+00
      7   0.000000D+00
      8   0.000000D+00
      9   0.000000D+00
     10   0.000000D+00
     11   0.000000D+00
     12   0.000000D+00
     13   0.000000D+00
     14   0.000000D+00
     15   0.000000D+00
     16   0.000000D+00
     17   0.000000D+00
     18   0.000000D+00
     19   0.000000D+00
     20   0.000000D+00
     21   0.000000D+00
     22   0.000000D+00
     23   0.000000D+00
     24   0.000000D+00
     25   0.000000D+00
     26   0.000000D+00
     27   0.000000D+00
     28   0.000000D+00
     29   0.000000D+00
     30   0.000000D+00
     31   0.000000D+00
     32   0.000000D+00
     33   0.000000D+00
     34   0.000000D+00
     35   0.000000D+00
     36   0.000000D+00
     37   0.000000D+00
     38   0.000000D+00
     39   0.000000D+00
     40   0.000000D+00
     41  -0.969157D+00
     42   0.000000D+00
     43   0.000000D+00
     44   0.000000D+00
     45   0.000000D+00
     46   0.170241D+01
 Guess Density Matrix:
                1             2             3             4             5 
      1  0.203108D+01
      2  0.107277D+00  0.151329D+00
      3  0.000000D+00  0.000000D+00  0.411398D+00
      4  0.000000D+00  0.000000D+00  0.000000D+00  0.184147D+00
      5  0.179850D-01 -0.561582D-02  0.000000D+00  0.000000D+00  0.354090D+00
      6 -0.326535D+00  0.239378D+00  0.000000D+00  0.000000D+00 -0.189875D+00
      7  0.000000D+00  0.000000D+00  0.253695D+00  0.000000D+00  0.000000D+00
      8  0.000000D+00  0.000000D+00  0.000000D+00  0.153721D+00  0.000000D+00
      9  0.669833D-01 -0.518879D-01  0.000000D+00  0.000000D+00  0.951870D-01
     10  0.140822D-01 -0.834846D-02  0.000000D+00  0.000000D+00 -0.387297D-01
     11 -0.106732D-01  0.830491D-02  0.000000D+00  0.000000D+00  0.504259D-01
     12  0.000000D+00  0.000000D+00  0.187378D-01  0.000000D+00  0.000000D+00
     13  0.000000D+00  0.000000D+00  0.000000D+00  0.271719D+00  0.000000D+00
     14  0.896544D-01 -0.116006D+00  0.000000D+00  0.000000D+00 -0.315151D+00
     15 -0.109062D-01 -0.134419D-01  0.000000D+00  0.000000D+00  0.894111D-01
     16  0.000000D+00  0.000000D+00 -0.304165D-01  0.000000D+00  0.000000D+00
     17  0.000000D+00  0.000000D+00  0.000000D+00  0.260586D+00  0.000000D+00
     18  0.847744D-01 -0.979451D-01  0.000000D+00  0.000000D+00 -0.284036D+00
     19 -0.697924D-01  0.683179D-01  0.200716D+00  0.000000D+00 -0.100789D+00
     20  0.213385D-01  0.111091D-01  0.156579D+00  0.000000D+00 -0.685254D-01
     21 -0.697924D-01  0.683179D-01 -0.200716D+00  0.000000D+00 -0.100789D+00
     22  0.213385D-01  0.111091D-01 -0.156579D+00  0.000000D+00 -0.685254D-01
                6             7             8             9            10 
      6  0.600608D+00
      7  0.000000D+00  0.180827D+00
      8  0.000000D+00  0.000000D+00  0.128321D+00
      9 -0.149386D+00  0.000000D+00  0.000000D+00  0.497804D-01
     10  0.744862D-01  0.000000D+00  0.000000D+00  0.380902D-01  0.205576D+01
     11 -0.329433D-01  0.000000D+00  0.000000D+00 -0.235083D-02  0.943059D-01
     12  0.000000D+00  0.134329D+00  0.000000D+00  0.000000D+00  0.000000D+00
     13  0.000000D+00  0.000000D+00  0.226823D+00  0.000000D+00  0.000000D+00
     14 -0.900427D-01  0.000000D+00  0.000000D+00 -0.461353D-01 -0.458291D-01
     15 -0.172640D+00  0.000000D+00  0.000000D+00 -0.273075D-01 -0.529523D+00
     16  0.000000D+00  0.106170D+00  0.000000D+00  0.000000D+00  0.000000D+00
     17  0.000000D+00  0.000000D+00  0.217529D+00  0.000000D+00  0.000000D+00
     18 -0.691792D-01  0.000000D+00  0.000000D+00 -0.429488D-01 -0.515823D-02
     19  0.186118D+00  0.105290D+00  0.000000D+00 -0.549632D-01  0.498396D-02
     20  0.463941D-01  0.550295D-01  0.000000D+00 -0.216899D-01  0.220854D-02
     21  0.186118D+00 -0.105290D+00  0.000000D+00 -0.549632D-01  0.498396D-02
     22  0.463941D-01 -0.550295D-01  0.000000D+00 -0.216899D-01  0.220854D-02
               11            12            13            14            15 
     11  0.141572D+00
     12  0.000000D+00  0.619061D+00
     13  0.000000D+00  0.000000D+00  0.400935D+00
     14  0.275084D-01  0.000000D+00  0.000000D+00  0.457513D+00
     15  0.386876D+00  0.000000D+00  0.000000D+00  0.219620D+00  0.140071D+01
     16  0.000000D+00  0.627660D+00  0.000000D+00  0.000000D+00  0.000000D+00
     17  0.000000D+00  0.000000D+00  0.384508D+00  0.000000D+00  0.000000D+00
     18  0.262736D-01  0.000000D+00  0.000000D+00  0.404908D+00  0.185912D+00
     19 -0.920748D-02 -0.839324D-01  0.000000D+00  0.253812D-01 -0.300395D-01
     20 -0.306131D-02 -0.201971D+00  0.000000D+00  0.592729D-01  0.333578D-02
     21 -0.920748D-02  0.839324D-01  0.000000D+00  0.253812D-01 -0.300395D-01
     22 -0.306131D-02  0.201971D+00  0.000000D+00  0.592729D-01  0.333578D-02
               16            17            18            19            20 
     16  0.642323D+00
     17  0.000000D+00  0.368754D+00
     18  0.000000D+00  0.000000D+00  0.359175D+00
     19 -0.109546D+00  0.000000D+00  0.258178D-01  0.176497D+00
     20 -0.224345D+00  0.000000D+00  0.537288D-01  0.130789D+00  0.144748D+00
     21  0.109546D+00  0.000000D+00  0.258178D-01 -0.473819D-01 -0.849591D-01
     22  0.224345D+00  0.000000D+00  0.537288D-01 -0.849591D-01 -0.115894D+00
               21            22 
     21  0.176497D+00
     22  0.130789D+00  0.144748D+00
 Guess NEO Density Matrix:
                1             2             3             4             5 
      1  0.789877D+01
      2 -0.876434D+01  0.972476D+01
      3  0.331005D+01 -0.367277D+01  0.138710D+01
      4 -0.245665D+00  0.272586D+00 -0.102948D+00  0.764062D-02
      5  0.000000D+00  0.000000D+00  0.000000D+00  0.000000D+00  0.000000D+00
      6  0.000000D+00  0.000000D+00  0.000000D+00  0.000000D+00  0.000000D+00
      7  0.000000D+00  0.000000D+00  0.000000D+00  0.000000D+00  0.000000D+00
      8  0.000000D+00  0.000000D+00  0.000000D+00  0.000000D+00  0.000000D+00
      9  0.000000D+00  0.000000D+00  0.000000D+00  0.000000D+00  0.000000D+00
     10  0.000000D+00  0.000000D+00  0.000000D+00  0.000000D+00  0.000000D+00
     11  0.000000D+00  0.000000D+00  0.000000D+00  0.000000D+00  0.000000D+00
     12  0.000000D+00  0.000000D+00  0.000000D+00  0.000000D+00  0.000000D+00
     13  0.000000D+00  0.000000D+00  0.000000D+00  0.000000D+00  0.000000D+00
     14  0.000000D+00  0.000000D+00  0.000000D+00  0.000000D+00  0.000000D+00
     15  0.000000D+00  0.000000D+00  0.000000D+00  0.000000D+00  0.000000D+00
     16  0.000000D+00  0.000000D+00  0.000000D+00  0.000000D+00  0.000000D+00
     17  0.000000D+00  0.000000D+00  0.000000D+00  0.000000D+00  0.000000D+00
     18  0.000000D+00  0.000000D+00  0.000000D+00  0.000000D+00  0.000000D+00
     19  0.000000D+00  0.000000D+00  0.000000D+00  0.000000D+00  0.000000D+00
     20  0.000000D+00  0.000000D+00  0.000000D+00  0.000000D+00  0.000000D+00
     21  0.000000D+00  0.000000D+00  0.000000D+00  0.000000D+00  0.000000D+00
     22  0.000000D+00  0.000000D+00  0.000000D+00  0.000000D+00  0.000000D+00
     23  0.000000D+00  0.000000D+00  0.000000D+00  0.000000D+00  0.000000D+00
     24 -0.899008D-05  0.183027D-04 -0.140894D-04  0.458887D-05  0.000000D+00
     25  0.183027D-04 -0.295484D-04  0.191230D-04 -0.535073D-05  0.000000D+00
     26 -0.140894D-04  0.191230D-04 -0.102298D-04  0.224403D-05  0.000000D+00
     27  0.458887D-05 -0.535073D-05  0.224403D-05  0.000000D+00  0.000000D+00
     28  0.000000D+00  0.000000D+00  0.000000D+00  0.000000D+00  0.000000D+00
     29  0.000000D+00  0.000000D+00  0.000000D+00  0.000000D+00  0.000000D+00
     30  0.000000D+00  0.000000D+00  0.000000D+00  0.000000D+00  0.000000D+00
     31  0.000000D+00  0.000000D+00  0.000000D+00  0.000000D+00  0.000000D+00
     32  0.000000D+00  0.000000D+00  0.000000D+00  0.000000D+00  0.000000D+00
     33  0.000000D+00  0.000000D+00  0.000000D+00  0.000000D+00  0.000000D+00
     34  0.000000D+00  0.000000D+00  0.000000D+00  0.000000D+00  0.000000D+00
     35  0.000000D+00  0.000000D+00  0.000000D+00  0.000000D+00  0.000000D+00
     36  0.000000D+00  0.000000D+00  0.000000D+00  0.000000D+00  0.000000D+00
     37  0.000000D+00  0.000000D+00  0.000000D+00  0.000000D+00  0.000000D+00
     38  0.000000D+00  0.000000D+00  0.000000D+00  0.000000D+00  0.000000D+00
     39  0.000000D+00  0.000000D+00  0.000000D+00  0.000000D+00  0.000000D+00
     40  0.000000D+00  0.000000D+00  0.000000D+00  0.000000D+00  0.000000D+00
     41  0.000000D+00  0.000000D+00  0.000000D+00  0.000000D+00  0.000000D+00
     42  0.000000D+00  0.000000D+00  0.000000D+00  0.000000D+00  0.000000D+00
     43  0.000000D+00  0.000000D+00  0.000000D+00  0.000000D+00  0.000000D+00
     44  0.000000D+00  0.000000D+00  0.000000D+00  0.000000D+00  0.000000D+00
     45  0.000000D+00  0.000000D+00  0.000000D+00  0.000000D+00  0.000000D+00
     46  0.000000D+00  0.000000D+00  0.000000D+00  0.000000D+00  0.000000D+00
                6             7             8             9            10 
      6  0.000000D+00
      7  0.000000D+00  0.000000D+00
      8  0.000000D+00  0.000000D+00  0.000000D+00
      9  0.000000D+00  0.000000D+00  0.000000D+00  0.000000D+00
     10  0.000000D+00  0.000000D+00  0.000000D+00  0.000000D+00  0.000000D+00
     11  0.000000D+00  0.000000D+00  0.000000D+00  0.000000D+00  0.000000D+00
     12  0.000000D+00  0.000000D+00  0.000000D+00  0.000000D+00  0.000000D+00
     13  0.000000D+00  0.000000D+00  0.000000D+00  0.000000D+00  0.000000D+00
     14  0.000000D+00  0.000000D+00  0.000000D+00  0.000000D+00  0.000000D+00
     15  0.000000D+00  0.000000D+00  0.000000D+00  0.000000D+00  0.000000D+00
     16  0.000000D+00  0.000000D+00  0.000000D+00  0.000000D+00  0.000000D+00
     17  0.000000D+00  0.000000D+00  0.000000D+00  0.000000D+00  0.000000D+00
     18  0.000000D+00  0.000000D+00  0.000000D+00  0.000000D+00  0.000000D+00
     19  0.000000D+00  0.000000D+00  0.000000D+00  0.000000D+00  0.000000D+00
     20  0.000000D+00  0.000000D+00  0.000000D+00  0.000000D+00  0.000000D+00
     21  0.000000D+00  0.000000D+00  0.000000D+00  0.000000D+00  0.000000D+00
     22  0.000000D+00  0.000000D+00  0.000000D+00  0.000000D+00  0.000000D+00
     23  0.000000D+00  0.000000D+00  0.000000D+00  0.000000D+00  0.000000D+00
     24  0.000000D+00  0.000000D+00  0.000000D+00  0.000000D+00  0.000000D+00
     25  0.000000D+00  0.000000D+00  0.000000D+00  0.000000D+00  0.000000D+00
     26  0.000000D+00  0.000000D+00  0.000000D+00  0.000000D+00  0.000000D+00
     27  0.000000D+00  0.000000D+00  0.000000D+00  0.000000D+00  0.000000D+00
     28  0.000000D+00  0.000000D+00  0.000000D+00  0.000000D+00  0.000000D+00
     29  0.000000D+00  0.000000D+00  0.000000D+00  0.000000D+00  0.000000D+00
     30  0.000000D+00  0.000000D+00  0.000000D+00  0.000000D+00  0.000000D+00
     31  0.000000D+00  0.000000D+00  0.000000D+00  0.000000D+00  0.000000D+00
     32  0.000000D+00  0.000000D+00  0.000000D+00  0.000000D+00  0.000000D+00
     33  0.000000D+00  0.000000D+00  0.000000D+00  0.000000D+00  0.000000D+00
     34  0.000000D+00  0.000000D+00  0.000000D+00  0.000000D+00  0.000000D+00
     35  0.000000D+00  0.000000D+00  0.000000D+00  0.000000D+00  0.000000D+00
     36  0.000000D+00  0.000000D+00  0.000000D+00  0.000000D+00  0.000000D+00
     37  0.000000D+00  0.000000D+00  0.000000D+00  0.000000D+00  0.000000D+00
     38  0.000000D+00  0.000000D+00  0.000000D+00  0.000000D+00  0.000000D+00
     39  0.000000D+00  0.000000D+00  0.000000D+00  0.000000D+00  0.000000D+00
     40  0.000000D+00  0.000000D+00  0.000000D+00  0.000000D+00  0.000000D+00
     41  0.000000D+00  0.000000D+00  0.000000D+00  0.000000D+00  0.000000D+00
     42  0.000000D+00  0.000000D+00  0.000000D+00  0.000000D+00  0.000000D+00
     43  0.000000D+00  0.000000D+00  0.000000D+00  0.000000D+00  0.000000D+00
     44  0.000000D+00  0.000000D+00  0.000000D+00  0.000000D+00  0.000000D+00
     45  0.000000D+00  0.000000D+00  0.000000D+00  0.000000D+00  0.000000D+00
     46  0.000000D+00  0.000000D+00  0.000000D+00  0.000000D+00  0.000000D+00
               11            12            13            14            15 
     11  0.000000D+00
     12  0.000000D+00  0.000000D+00
     13  0.000000D+00  0.000000D+00  0.000000D+00
     14  0.000000D+00  0.000000D+00  0.000000D+00  0.000000D+00
     15  0.000000D+00  0.000000D+00  0.000000D+00  0.000000D+00  0.000000D+00
     16  0.000000D+00  0.000000D+00  0.000000D+00  0.000000D+00  0.000000D+00
     17  0.000000D+00  0.000000D+00  0.000000D+00  0.000000D+00  0.000000D+00
     18  0.000000D+00  0.000000D+00  0.000000D+00  0.000000D+00  0.000000D+00
     19  0.000000D+00  0.000000D+00  0.000000D+00  0.000000D+00  0.000000D+00
     20  0.000000D+00  0.000000D+00  0.000000D+00  0.000000D+00  0.000000D+00
     21  0.000000D+00  0.000000D+00  0.000000D+00  0.000000D+00  0.000000D+00
     22  0.000000D+00  0.000000D+00  0.000000D+00  0.000000D+00  0.000000D+00
     23  0.000000D+00  0.000000D+00  0.000000D+00  0.000000D+00  0.000000D+00
     24  0.000000D+00  0.000000D+00  0.000000D+00  0.000000D+00  0.000000D+00
     25  0.000000D+00  0.000000D+00  0.000000D+00  0.000000D+00  0.000000D+00
     26  0.000000D+00  0.000000D+00  0.000000D+00  0.000000D+00  0.000000D+00
     27  0.000000D+00  0.000000D+00  0.000000D+00  0.000000D+00  0.000000D+00
     28  0.000000D+00  0.000000D+00  0.000000D+00  0.000000D+00  0.000000D+00
     29  0.000000D+00  0.000000D+00  0.000000D+00  0.000000D+00  0.000000D+00
     30  0.000000D+00  0.000000D+00  0.000000D+00  0.000000D+00  0.000000D+00
     31  0.000000D+00  0.000000D+00  0.000000D+00  0.000000D+00  0.000000D+00
     32  0.000000D+00  0.000000D+00  0.000000D+00  0.000000D+00  0.000000D+00
     33  0.000000D+00  0.000000D+00  0.000000D+00  0.000000D+00  0.000000D+00
     34  0.000000D+00  0.000000D+00  0.000000D+00  0.000000D+00  0.000000D+00
     35  0.000000D+00  0.000000D+00  0.000000D+00  0.000000D+00  0.000000D+00
     36  0.000000D+00  0.000000D+00  0.000000D+00  0.000000D+00  0.000000D+00
     37  0.000000D+00  0.000000D+00  0.000000D+00  0.000000D+00  0.000000D+00
     38  0.000000D+00  0.000000D+00  0.000000D+00  0.000000D+00  0.000000D+00
     39  0.000000D+00  0.000000D+00  0.000000D+00  0.000000D+00  0.000000D+00
     40  0.000000D+00  0.000000D+00  0.000000D+00  0.000000D+00  0.000000D+00
     41  0.000000D+00  0.000000D+00  0.000000D+00  0.000000D+00  0.000000D+00
     42  0.000000D+00  0.000000D+00  0.000000D+00  0.000000D+00  0.000000D+00
     43  0.000000D+00  0.000000D+00  0.000000D+00  0.000000D+00  0.000000D+00
     44  0.000000D+00  0.000000D+00  0.000000D+00  0.000000D+00  0.000000D+00
     45  0.000000D+00  0.000000D+00  0.000000D+00  0.000000D+00  0.000000D+00
     46  0.000000D+00  0.000000D+00  0.000000D+00  0.000000D+00  0.000000D+00
               16            17            18            19            20 
     16  0.000000D+00
     17  0.000000D+00  0.000000D+00
     18  0.000000D+00  0.000000D+00  0.000000D+00
     19  0.000000D+00  0.000000D+00  0.000000D+00  0.000000D+00
     20  0.000000D+00  0.000000D+00  0.000000D+00  0.000000D+00  0.000000D+00
     21  0.000000D+00  0.000000D+00  0.000000D+00  0.000000D+00  0.000000D+00
     22  0.000000D+00  0.000000D+00  0.000000D+00  0.000000D+00  0.000000D+00
     23  0.000000D+00  0.000000D+00  0.000000D+00  0.000000D+00  0.000000D+00
     24  0.000000D+00  0.000000D+00  0.000000D+00  0.000000D+00  0.000000D+00
     25  0.000000D+00  0.000000D+00  0.000000D+00  0.000000D+00  0.000000D+00
     26  0.000000D+00  0.000000D+00  0.000000D+00  0.000000D+00  0.000000D+00
     27  0.000000D+00  0.000000D+00  0.000000D+00  0.000000D+00  0.000000D+00
     28  0.000000D+00  0.000000D+00  0.000000D+00  0.000000D+00  0.000000D+00
     29  0.000000D+00  0.000000D+00  0.000000D+00  0.000000D+00  0.000000D+00
     30  0.000000D+00  0.000000D+00  0.000000D+00  0.000000D+00  0.000000D+00
     31  0.000000D+00  0.000000D+00  0.000000D+00  0.000000D+00  0.000000D+00
     32  0.000000D+00  0.000000D+00  0.000000D+00  0.000000D+00  0.000000D+00
     33  0.000000D+00  0.000000D+00  0.000000D+00  0.000000D+00  0.000000D+00
     34  0.000000D+00  0.000000D+00  0.000000D+00  0.000000D+00  0.000000D+00
     35  0.000000D+00  0.000000D+00  0.000000D+00  0.000000D+00  0.000000D+00
     36  0.000000D+00  0.000000D+00  0.000000D+00  0.000000D+00  0.000000D+00
     37  0.000000D+00  0.000000D+00  0.000000D+00  0.000000D+00  0.000000D+00
     38  0.000000D+00  0.000000D+00  0.000000D+00  0.000000D+00  0.000000D+00
     39  0.000000D+00  0.000000D+00  0.000000D+00  0.000000D+00  0.000000D+00
     40  0.000000D+00  0.000000D+00  0.000000D+00  0.000000D+00  0.000000D+00
     41  0.000000D+00  0.000000D+00  0.000000D+00  0.000000D+00  0.000000D+00
     42  0.000000D+00  0.000000D+00  0.000000D+00  0.000000D+00  0.000000D+00
     43  0.000000D+00  0.000000D+00  0.000000D+00  0.000000D+00  0.000000D+00
     44  0.000000D+00  0.000000D+00  0.000000D+00  0.000000D+00  0.000000D+00
     45  0.000000D+00  0.000000D+00  0.000000D+00  0.000000D+00  0.000000D+00
     46  0.000000D+00  0.000000D+00  0.000000D+00  0.000000D+00  0.000000D+00
               21            22            23            24            25 
     21  0.000000D+00
     22  0.000000D+00  0.000000D+00
     23  0.000000D+00  0.000000D+00  0.000000D+00
     24  0.000000D+00  0.000000D+00  0.000000D+00  0.789877D+01
     25  0.000000D+00  0.000000D+00  0.000000D+00 -0.876434D+01  0.972476D+01
     26  0.000000D+00  0.000000D+00  0.000000D+00  0.331005D+01 -0.367277D+01
     27  0.000000D+00  0.000000D+00  0.000000D+00 -0.245665D+00  0.272586D+00
     28  0.000000D+00  0.000000D+00  0.000000D+00  0.000000D+00  0.000000D+00
     29  0.000000D+00  0.000000D+00  0.000000D+00  0.000000D+00  0.000000D+00
     30  0.000000D+00  0.000000D+00  0.000000D+00  0.000000D+00  0.000000D+00
     31  0.000000D+00  0.000000D+00  0.000000D+00  0.000000D+00  0.000000D+00
     32  0.000000D+00  0.000000D+00  0.000000D+00  0.000000D+00  0.000000D+00
     33  0.000000D+00  0.000000D+00  0.000000D+00  0.000000D+00  0.000000D+00
     34  0.000000D+00  0.000000D+00  0.000000D+00  0.000000D+00  0.000000D+00
     35  0.000000D+00  0.000000D+00  0.000000D+00  0.000000D+00  0.000000D+00
     36  0.000000D+00  0.000000D+00  0.000000D+00  0.000000D+00  0.000000D+00
     37  0.000000D+00  0.000000D+00  0.000000D+00  0.000000D+00  0.000000D+00
     38  0.000000D+00  0.000000D+00  0.000000D+00  0.000000D+00  0.000000D+00
     39  0.000000D+00  0.000000D+00  0.000000D+00  0.000000D+00  0.000000D+00
     40  0.000000D+00  0.000000D+00  0.000000D+00  0.000000D+00  0.000000D+00
     41  0.000000D+00  0.000000D+00  0.000000D+00  0.000000D+00  0.000000D+00
     42  0.000000D+00  0.000000D+00  0.000000D+00  0.000000D+00  0.000000D+00
     43  0.000000D+00  0.000000D+00  0.000000D+00  0.000000D+00  0.000000D+00
     44  0.000000D+00  0.000000D+00  0.000000D+00  0.000000D+00  0.000000D+00
     45  0.000000D+00  0.000000D+00  0.000000D+00  0.000000D+00  0.000000D+00
     46  0.000000D+00  0.000000D+00  0.000000D+00  0.000000D+00  0.000000D+00
               26            27            28            29            30 
     26  0.138710D+01
     27 -0.102948D+00  0.764062D-02
     28  0.000000D+00  0.000000D+00  0.000000D+00
     29  0.000000D+00  0.000000D+00  0.000000D+00  0.000000D+00
     30  0.000000D+00  0.000000D+00  0.000000D+00  0.000000D+00  0.000000D+00
     31  0.000000D+00  0.000000D+00  0.000000D+00  0.000000D+00  0.000000D+00
     32  0.000000D+00  0.000000D+00  0.000000D+00  0.000000D+00  0.000000D+00
     33  0.000000D+00  0.000000D+00  0.000000D+00  0.000000D+00  0.000000D+00
     34  0.000000D+00  0.000000D+00  0.000000D+00  0.000000D+00  0.000000D+00
     35  0.000000D+00  0.000000D+00  0.000000D+00  0.000000D+00  0.000000D+00
     36  0.000000D+00  0.000000D+00  0.000000D+00  0.000000D+00  0.000000D+00
     37  0.000000D+00  0.000000D+00  0.000000D+00  0.000000D+00  0.000000D+00
     38  0.000000D+00  0.000000D+00  0.000000D+00  0.000000D+00  0.000000D+00
     39  0.000000D+00  0.000000D+00  0.000000D+00  0.000000D+00  0.000000D+00
     40  0.000000D+00  0.000000D+00  0.000000D+00  0.000000D+00  0.000000D+00
     41  0.000000D+00  0.000000D+00  0.000000D+00  0.000000D+00  0.000000D+00
     42  0.000000D+00  0.000000D+00  0.000000D+00  0.000000D+00  0.000000D+00
     43  0.000000D+00  0.000000D+00  0.000000D+00  0.000000D+00  0.000000D+00
     44  0.000000D+00  0.000000D+00  0.000000D+00  0.000000D+00  0.000000D+00
     45  0.000000D+00  0.000000D+00  0.000000D+00  0.000000D+00  0.000000D+00
     46  0.000000D+00  0.000000D+00  0.000000D+00  0.000000D+00  0.000000D+00
               31            32            33            34            35 
     31  0.000000D+00
     32  0.000000D+00  0.000000D+00
     33  0.000000D+00  0.000000D+00  0.000000D+00
     34  0.000000D+00  0.000000D+00  0.000000D+00  0.000000D+00
     35  0.000000D+00  0.000000D+00  0.000000D+00  0.000000D+00  0.000000D+00
     36  0.000000D+00  0.000000D+00  0.000000D+00  0.000000D+00  0.000000D+00
     37  0.000000D+00  0.000000D+00  0.000000D+00  0.000000D+00  0.000000D+00
     38  0.000000D+00  0.000000D+00  0.000000D+00  0.000000D+00  0.000000D+00
     39  0.000000D+00  0.000000D+00  0.000000D+00  0.000000D+00  0.000000D+00
     40  0.000000D+00  0.000000D+00  0.000000D+00  0.000000D+00  0.000000D+00
     41  0.000000D+00  0.000000D+00  0.000000D+00  0.000000D+00  0.000000D+00
     42  0.000000D+00  0.000000D+00  0.000000D+00  0.000000D+00  0.000000D+00
     43  0.000000D+00  0.000000D+00  0.000000D+00  0.000000D+00  0.000000D+00
     44  0.000000D+00  0.000000D+00  0.000000D+00  0.000000D+00  0.000000D+00
     45  0.000000D+00  0.000000D+00  0.000000D+00  0.000000D+00  0.000000D+00
     46  0.000000D+00  0.000000D+00  0.000000D+00  0.000000D+00  0.000000D+00
               36            37            38            39            40 
     36  0.000000D+00
     37  0.000000D+00  0.000000D+00
     38  0.000000D+00  0.000000D+00  0.000000D+00
     39  0.000000D+00  0.000000D+00  0.000000D+00  0.000000D+00
     40  0.000000D+00  0.000000D+00  0.000000D+00  0.000000D+00  0.000000D+00
     41  0.000000D+00  0.000000D+00  0.000000D+00  0.000000D+00  0.000000D+00
     42  0.000000D+00  0.000000D+00  0.000000D+00  0.000000D+00  0.000000D+00
     43  0.000000D+00  0.000000D+00  0.000000D+00  0.000000D+00  0.000000D+00
     44  0.000000D+00  0.000000D+00  0.000000D+00  0.000000D+00  0.000000D+00
     45  0.000000D+00  0.000000D+00  0.000000D+00  0.000000D+00  0.000000D+00
     46  0.000000D+00  0.000000D+00  0.000000D+00  0.000000D+00  0.000000D+00
               41            42            43            44            45 
     41  0.000000D+00
     42  0.000000D+00  0.000000D+00
     43  0.000000D+00  0.000000D+00  0.000000D+00
     44  0.000000D+00  0.000000D+00  0.000000D+00  0.000000D+00
     45  0.000000D+00  0.000000D+00  0.000000D+00  0.000000D+00  0.000000D+00
     46  0.000000D+00  0.000000D+00  0.000000D+00  0.000000D+00  0.000000D+00
               46 
     46  0.000000D+00
 Leave Link  401 at Fri Jun 17 23:34:44 2022, MaxMem= 22817013760 cpu:               8.2 elap:               0.3
 (Enter /gscratch/chem/al777/neo_scf/exe-dir/l502.exe)
 Keep R1 and R2 ints in memory in canonical form, NReq=8077333.
 FoFCou: FMM=F IPFlag=           0 FMFlag=           0 FMFlg1=           0
         NFxFlg=           0 DoJE=F BraDBF=F KetDBF=F FulRan=T
         wScrn=  0.000000 ICntrl=       600 IOpCl=  0 I1Cent=           0 NGrid=           0
         NMat0=    1 NMatS0=    253 NMatT0=    0 NMatD0=    1 NMtDS0=    0 NMtDT0=    0
 Symmetry not used in FoFCou.
 Two-electron integral symmetry not used.
 Enter NEO-SCF
 Enter Simultaneous NEO Optimization
 Checking Convergence of E and P
 Delta E    0.000000000000000     
 RMSDPE    0.000000000000000     
 RMSDPP    0.000000000000000     
 Calling MkFok1 and FoFNEO to get next Fock matrix
 FoFJK:  IHMeth= 1 ICntrl=       0 DoSepK=F KAlg= 0 I1Cent=           0 FoldK=F
 IRaf=         0 NMat=       1 IRICut=       1 DoRegI=T DoRafI=F ISym2E= 0 IDoP0=0 IntGTp=1.
 Enegy Component Breakdown at Iteration                        1
 Classical nuclear potential =     20.82008698701639     
 Quantum-classical nuclear potential =     10.23883919369916     
[...]
 Checking Convergence of E and P
 Delta E  -6.1106675275368616E-013
 RMSDPE   7.4624062719783946E-009
 RMSDPP   1.4597687797731325E-007
 Calling MkFok1 and FoFNEO to get next Fock matrix
 Enegy Component Breakdown at Iteration                       77
 Classical nuclear potential =     20.82008698701639     
 Quantum-classical nuclear potential =     9.842221659173488     
 Quantum nuclear potential =    0.2709299103328975     
 Pure electronic energy =   -131.7383526430772     
 Electron-quantum-nuclear potential =    -12.34028495307066     
 Quantum-nuclear-electron potential =    -12.34028495304065     
 B matrix at iteration         77
                 1             2             3             4             5 
      1   0.000000D+00 -0.100000D+01 -0.100000D+01 -0.100000D+01 -0.100000D+01
      2  -0.100000D+01  0.259266D-10  0.164790D-10  0.509723D-11  0.252228D-11
      3  -0.100000D+01  0.164790D-10  0.123912D-10  0.504280D-11  0.247320D-11
      4  -0.100000D+01  0.509723D-11  0.504280D-11  0.452688D-11  0.246974D-11
      5  -0.100000D+01  0.252228D-11  0.247320D-11  0.246974D-11  0.201037D-11
      6  -0.100000D+01  0.998760D-12  0.939736D-12  0.101261D-11  0.986940D-12
      7  -0.100000D+01  0.804677D-12  0.755537D-12  0.794794D-12  0.820476D-12
      8  -0.100000D+01  0.153249D-12  0.148230D-12  0.156541D-12  0.161200D-12
      9  -0.100000D+01  0.121484D-12  0.113735D-12  0.120934D-12  0.117171D-12
     10  -0.100000D+01  0.772922D-13  0.637219D-13  0.564702D-13  0.752113D-13
     11  -0.100000D+01  0.590897D-13  0.548207D-13  0.599319D-13  0.428906D-13
                 6             7             8             9            10 
      1  -0.100000D+01 -0.100000D+01 -0.100000D+01 -0.100000D+01 -0.100000D+01
      2   0.998760D-12  0.804677D-12  0.153249D-12  0.121484D-12  0.772922D-13
      3   0.939736D-12  0.755537D-12  0.148230D-12  0.113735D-12  0.637219D-13
      4   0.101261D-11  0.794794D-12  0.156541D-12  0.120934D-12  0.564702D-13
      5   0.986940D-12  0.820476D-12  0.161200D-12  0.117171D-12  0.752113D-13
      6   0.901396D-12  0.794973D-12  0.160146D-12  0.120230D-12  0.669311D-13
      7   0.794973D-12  0.712873D-12  0.158553D-12  0.119678D-12  0.652241D-13
      8   0.160146D-12  0.158553D-12  0.128250D-12  0.119568D-12  0.673599D-13
      9   0.120230D-12  0.119678D-12  0.119568D-12  0.116180D-12  0.692591D-13
     10   0.669311D-13  0.652241D-13  0.673599D-13  0.692591D-13  0.607528D-13
     11   0.498159D-13  0.482174D-13  0.484352D-13  0.485362D-13  0.455882D-13
                11 
      1  -0.100000D+01
      2   0.590897D-13
      3   0.548207D-13
      4   0.599319D-13
      5   0.428906D-13
      6   0.498159D-13
      7   0.482174D-13
      8   0.484352D-13
      9   0.485362D-13
     10   0.455882D-13
     11   0.413714D-13
 Coeff:     -0.626D-03 0.286D-02-0.849D-01 0.306D+00-0.223D+01 0.256D+01
 Coeff:     -0.513D+01 0.546D+01-0.292D+01 0.305D+01
 Has Electronic Subsystem Converged:   T
 Has Protonic Subsystem Converged:   F
 Simultaneous Optimization Iteration #                       77
 The Energy for This Iteration is:    -113.1453990396250     
 Total Energy in Simultaneous Opt Has Converged,         But the Subsystem Density Has NOT Converged.
 Enter Simultaneous NEO Optimization
 Checking Convergence of E and P
 Delta E  -4.2632564145606011E-013
 RMSDPE   1.0373162052685304E-008
 RMSDPP   1.1862926701356998E-007
 Calling MkFok1 and FoFNEO to get next Fock matrix
 Enegy Component Breakdown at Iteration                       78
 Classical nuclear potential =     20.82008698701639     
 Quantum-classical nuclear potential =     9.842221478137349     
 Quantum nuclear potential =    0.2709298835139953     
 Pure electronic energy =   -131.7383526980238     
 Electron-quantum-nuclear potential =    -12.34028469026911     
 Quantum-nuclear-electron potential =    -12.34028469023911     
 B matrix at iteration         78
                 1             2             3             4             5 
      1   0.000000D+00 -0.100000D+01 -0.100000D+01 -0.100000D+01 -0.100000D+01
      2  -0.100000D+01  0.123912D-10  0.504280D-11  0.247320D-11  0.939736D-12
      3  -0.100000D+01  0.504280D-11  0.452688D-11  0.246974D-11  0.101261D-11
      4  -0.100000D+01  0.247320D-11  0.246974D-11  0.201037D-11  0.986940D-12
      5  -0.100000D+01  0.939736D-12  0.101261D-11  0.986940D-12  0.901396D-12
      6  -0.100000D+01  0.755537D-12  0.794794D-12  0.820476D-12  0.794973D-12
      7  -0.100000D+01  0.148230D-12  0.156541D-12  0.161200D-12  0.160146D-12
      8  -0.100000D+01  0.113735D-12  0.120934D-12  0.117171D-12  0.120230D-12
      9  -0.100000D+01  0.637219D-13  0.564702D-13  0.752113D-13  0.669311D-13
     10  -0.100000D+01  0.548207D-13  0.599319D-13  0.428906D-13  0.498159D-13
     11  -0.100000D+01  0.312334D-13  0.345614D-13  0.286356D-13  0.297826D-13
                 6             7             8             9            10 
      1  -0.100000D+01 -0.100000D+01 -0.100000D+01 -0.100000D+01 -0.100000D+01
      2   0.755537D-12  0.148230D-12  0.113735D-12  0.637219D-13  0.548207D-13
      3   0.794794D-12  0.156541D-12  0.120934D-12  0.564702D-13  0.599319D-13
      4   0.820476D-12  0.161200D-12  0.117171D-12  0.752113D-13  0.428906D-13
      5   0.794973D-12  0.160146D-12  0.120230D-12  0.669311D-13  0.498159D-13
      6   0.712873D-12  0.158553D-12  0.119678D-12  0.652241D-13  0.482174D-13
      7   0.158553D-12  0.128250D-12  0.119568D-12  0.673599D-13  0.484352D-13
      8   0.119678D-12  0.119568D-12  0.116180D-12  0.692591D-13  0.485362D-13
      9   0.652241D-13  0.673599D-13  0.692591D-13  0.607528D-13  0.455882D-13
     10   0.482174D-13  0.484352D-13  0.485362D-13  0.455882D-13  0.413714D-13
     11   0.300185D-13  0.310496D-13  0.295825D-13  0.279487D-13  0.290275D-13
                11 
      1  -0.100000D+01
      2   0.312334D-13
      3   0.345614D-13
      4   0.286356D-13
      5   0.297826D-13
      6   0.300185D-13
      7   0.310496D-13
      8   0.295825D-13
      9   0.279487D-13
     10   0.290275D-13
     11   0.244848D-13
 Coeff:     -0.575D-02 0.111D+00-0.323D+00 0.177D+01-0.193D+01 0.330D+01
 Coeff:     -0.374D+01 0.350D+01-0.500D+01 0.332D+01
 Has Electronic Subsystem Converged:   F
 Has Protonic Subsystem Converged:   F
 Simultaneous Optimization Iteration #                       78
 The Energy for This Iteration is:    -113.1453990396252     
 Total Energy in Simultaneous Opt Has Converged,         But the Subsystem Density Has NOT Converged.
 Enter Simultaneous NEO Optimization
 Checking Convergence of E and P
 Delta E  -1.1368683772161603E-013
 RMSDPE   1.2119561906084714E-008
 RMSDPP   7.0226500568487086E-008
 Calling MkFok1 and FoFNEO to get next Fock matrix
 Enegy Component Breakdown at Iteration                       79
 Classical nuclear potential =     20.82008698701639     
 Quantum-classical nuclear potential =     9.842220962813736     
 Quantum nuclear potential =    0.2709298482317890     
 Pure electronic energy =   -131.7383527975040     
 Electron-quantum-nuclear potential =    -12.34028404018345     
 Quantum-nuclear-electron potential =    -12.34028404015345     
 B matrix at iteration         79
                 1             2             3             4             5 
      1   0.000000D+00 -0.100000D+01 -0.100000D+01 -0.100000D+01 -0.100000D+01
      2  -0.100000D+01  0.123912D-10  0.504280D-11  0.247320D-11  0.939736D-12
      3  -0.100000D+01  0.504280D-11  0.452688D-11  0.246974D-11  0.101261D-11
      4  -0.100000D+01  0.247320D-11  0.246974D-11  0.201037D-11  0.986940D-12
      5  -0.100000D+01  0.939736D-12  0.101261D-11  0.986940D-12  0.901396D-12
      6  -0.100000D+01  0.755537D-12  0.794794D-12  0.820476D-12  0.794973D-12
      7  -0.100000D+01  0.148230D-12  0.156541D-12  0.161200D-12  0.160146D-12
      8  -0.100000D+01  0.113735D-12  0.120934D-12  0.117171D-12  0.120230D-12
      9  -0.100000D+01  0.637219D-13  0.564702D-13  0.752113D-13  0.669311D-13
     10  -0.100000D+01  0.312334D-13  0.345614D-13  0.286356D-13  0.297826D-13
     11  -0.100000D+01  0.148818D-13  0.182216D-13  0.795855D-14  0.144851D-13
                 6             7             8             9            10 
      1  -0.100000D+01 -0.100000D+01 -0.100000D+01 -0.100000D+01 -0.100000D+01
      2   0.755537D-12  0.148230D-12  0.113735D-12  0.637219D-13  0.312334D-13
      3   0.794794D-12  0.156541D-12  0.120934D-12  0.564702D-13  0.345614D-13
      4   0.820476D-12  0.161200D-12  0.117171D-12  0.752113D-13  0.286356D-13
      5   0.794973D-12  0.160146D-12  0.120230D-12  0.669311D-13  0.297826D-13
      6   0.712873D-12  0.158553D-12  0.119678D-12  0.652241D-13  0.300185D-13
      7   0.158553D-12  0.128250D-12  0.119568D-12  0.673599D-13  0.310496D-13
      8   0.119678D-12  0.119568D-12  0.116180D-12  0.692591D-13  0.295825D-13
      9   0.652241D-13  0.673599D-13  0.692591D-13  0.607528D-13  0.279487D-13
     10   0.300185D-13  0.310496D-13  0.295825D-13  0.279487D-13  0.244848D-13
     11   0.142540D-13  0.151496D-13  0.153664D-13  0.152140D-13  0.141182D-13
                11 
      1  -0.100000D+01
      2   0.148818D-13
      3   0.182216D-13
      4   0.795855D-14
      5   0.144851D-13
      6   0.142540D-13
      7   0.151496D-13
      8   0.153664D-13
      9   0.152140D-13
     10   0.141182D-13
     11   0.103217D-13
 Coeff:      0.190D-02-0.980D-02-0.232D-02 0.328D+00-0.429D+00 0.124D+01
 Coeff:     -0.126D+01 0.301D+00-0.104D+01 0.187D+01
 Has Electronic Subsystem Converged:   F
 Has Protonic Subsystem Converged:   F
 Simultaneous Optimization Iteration #                       79
 The Energy for This Iteration is:    -113.1453990396255     
 Total Energy in Simultaneous Opt Has Converged,         But the Subsystem Density Has NOT Converged.
 Enter Simultaneous NEO Optimization
 Checking Convergence of E and P
 Delta E  -3.4106051316484809E-013
 RMSDPE   5.5854332671636669E-009
 RMSDPP   4.8662567823183492E-008
 Calling MkFok1 and FoFNEO to get next Fock matrix
 Enegy Component Breakdown at Iteration                       80
 Classical nuclear potential =     20.82008698701639     
 Quantum-classical nuclear potential =     9.842220652323805     
 Quantum nuclear potential =    0.2709298265382583     
 Pure electronic energy =   -131.7383528422575     
 Electron-quantum-nuclear potential =    -12.34028366324653     
 Quantum-nuclear-electron potential =    -12.34028366321652     
 B matrix at iteration         80
                 1             2             3             4             5 
      1   0.000000D+00 -0.100000D+01 -0.100000D+01 -0.100000D+01 -0.100000D+01
      2  -0.100000D+01  0.452688D-11  0.246974D-11  0.101261D-11  0.794794D-12
      3  -0.100000D+01  0.246974D-11  0.201037D-11  0.986940D-12  0.820476D-12
      4  -0.100000D+01  0.101261D-11  0.986940D-12  0.901396D-12  0.794973D-12
      5  -0.100000D+01  0.794794D-12  0.820476D-12  0.794973D-12  0.712873D-12
      6  -0.100000D+01  0.156541D-12  0.161200D-12  0.160146D-12  0.158553D-12
      7  -0.100000D+01  0.120934D-12  0.117171D-12  0.120230D-12  0.119678D-12
      8  -0.100000D+01  0.564702D-13  0.752113D-13  0.669311D-13  0.652241D-13
      9  -0.100000D+01  0.345614D-13  0.286356D-13  0.297826D-13  0.300185D-13
     10  -0.100000D+01  0.182216D-13  0.795855D-14  0.144851D-13  0.142540D-13
     11  -0.100000D+01 -0.199531D-14  0.105668D-13  0.537554D-14  0.589706D-14
                 6             7             8             9            10 
      1  -0.100000D+01 -0.100000D+01 -0.100000D+01 -0.100000D+01 -0.100000D+01
      2   0.156541D-12  0.120934D-12  0.564702D-13  0.345614D-13  0.182216D-13
      3   0.161200D-12  0.117171D-12  0.752113D-13  0.286356D-13  0.795855D-14
      4   0.160146D-12  0.120230D-12  0.669311D-13  0.297826D-13  0.144851D-13
      5   0.158553D-12  0.119678D-12  0.652241D-13  0.300185D-13  0.142540D-13
      6   0.128250D-12  0.119568D-12  0.673599D-13  0.310496D-13  0.151496D-13
      7   0.119568D-12  0.116180D-12  0.692591D-13  0.295825D-13  0.153664D-13
      8   0.673599D-13  0.692591D-13  0.607528D-13  0.279487D-13  0.152140D-13
      9   0.310496D-13  0.295825D-13  0.279487D-13  0.244848D-13  0.141182D-13
     10   0.151496D-13  0.153664D-13  0.152140D-13  0.141182D-13  0.103217D-13
     11   0.615755D-14  0.613801D-14  0.720377D-14  0.664795D-14  0.627571D-14
                11 
      1  -0.100000D+01
      2  -0.199531D-14
      3   0.105668D-13
      4   0.537554D-14
      5   0.589706D-14
      6   0.615755D-14
      7   0.613801D-14
      8   0.720377D-14
      9   0.664795D-14
     10   0.627571D-14
     11   0.599640D-14
 Coeff:      0.235D-01-0.584D-01 0.156D+00-0.124D+00-0.235D+00 0.297D+00
 Coeff:     -0.120D+00 0.559D+00-0.132D+01 0.183D+01
 Has Electronic Subsystem Converged:   T
 Has Protonic Subsystem Converged:   F
 Simultaneous Optimization Iteration #                       80
 The Energy for This Iteration is:    -113.1453990396255     
 Total Energy in Simultaneous Opt Has Converged,         But the Subsystem Density Has NOT Converged.
 Enter Simultaneous NEO Optimization
 Checking Convergence of E and P
 Delta E  -4.2632564145606011E-014
 RMSDPE   4.4050260975575702E-009
 RMSDPP   7.2566207517598234E-009
 Calling MkFok1 and FoFNEO to get next Fock matrix
 Enegy Component Breakdown at Iteration                       81
 Classical nuclear potential =     20.82008698701639     
 Quantum-classical nuclear potential =     9.842220731220561     
 Quantum nuclear potential =    0.2709298270665068     
 Pure electronic energy =   -131.7383528468400     
 Electron-quantum-nuclear potential =    -12.34028373808907     
 Quantum-nuclear-electron potential =    -12.34028373805906     
 B matrix at iteration         81
                 1             2             3             4             5 
      1   0.000000D+00 -0.100000D+01 -0.100000D+01 -0.100000D+01 -0.100000D+01
      2  -0.100000D+01  0.452688D-11  0.246974D-11  0.101261D-11  0.794794D-12
      3  -0.100000D+01  0.246974D-11  0.201037D-11  0.986940D-12  0.820476D-12
      4  -0.100000D+01  0.101261D-11  0.986940D-12  0.901396D-12  0.794973D-12
      5  -0.100000D+01  0.794794D-12  0.820476D-12  0.794973D-12  0.712873D-12
      6  -0.100000D+01  0.156541D-12  0.161200D-12  0.160146D-12  0.158553D-12
      7  -0.100000D+01  0.120934D-12  0.117171D-12  0.120230D-12  0.119678D-12
      8  -0.100000D+01  0.564702D-13  0.752113D-13  0.669311D-13  0.652241D-13
      9  -0.100000D+01  0.345614D-13  0.286356D-13  0.297826D-13  0.300185D-13
     10  -0.100000D+01 -0.199531D-14  0.105668D-13  0.537554D-14  0.589706D-14
     11  -0.100000D+01  0.850805D-14  0.352228D-14  0.639234D-14  0.629043D-14
                 6             7             8             9            10 
      1  -0.100000D+01 -0.100000D+01 -0.100000D+01 -0.100000D+01 -0.100000D+01
      2   0.156541D-12  0.120934D-12  0.564702D-13  0.345614D-13 -0.199531D-14
      3   0.161200D-12  0.117171D-12  0.752113D-13  0.286356D-13  0.105668D-13
      4   0.160146D-12  0.120230D-12  0.669311D-13  0.297826D-13  0.537554D-14
      5   0.158553D-12  0.119678D-12  0.652241D-13  0.300185D-13  0.589706D-14
      6   0.128250D-12  0.119568D-12  0.673599D-13  0.310496D-13  0.615755D-14
      7   0.119568D-12  0.116180D-12  0.692591D-13  0.295825D-13  0.613801D-14
      8   0.673599D-13  0.692591D-13  0.607528D-13  0.279487D-13  0.720377D-14
      9   0.310496D-13  0.295825D-13  0.279487D-13  0.244848D-13  0.664795D-14
     10   0.615755D-14  0.613801D-14  0.720377D-14  0.664795D-14  0.599640D-14
     11   0.548393D-14  0.552194D-14  0.557442D-14  0.544667D-14  0.492342D-14
                11 
      1  -0.100000D+01
      2   0.850805D-14
      3   0.352228D-14
      4   0.639234D-14
      5   0.629043D-14
      6   0.548393D-14
      7   0.552194D-14
      8   0.557442D-14
      9   0.544667D-14
     10   0.492342D-14
     11   0.455075D-14
 Coeff:     -0.580D-01 0.169D+00-0.836D+00 0.895D+00-0.146D+01 0.144D+01
 Coeff:     -0.340D+00 0.428D+00-0.349D+01 0.426D+01
 Has Electronic Subsystem Converged:   T
 Has Protonic Subsystem Converged:   T
 Simultaneous Optimization Iteration #                       81
 The Energy for This Iteration is:    -113.1453990396256     
 TOTAL ENERGY HAS CONVERGED!!!
 NEO-SCF Converged After Iteration #                       81
 E= -113.145399039626    
 Elec Eigen 
                 1             2 
      1  -0.204795D+02  0.000000D+00
      2  -0.112844D+02  0.221853D+00
      3  -0.140630D+01  0.221807D+00
      4  -0.846900D+00  0.221761D+00
      5  -0.684833D+00  0.221716D+00
      6  -0.623454D+00  0.221670D+00
      7  -0.518137D+00  0.221624D+00
      8  -0.424977D+00  0.221579D+00
      9   0.146709D+00  0.221533D+00
     10   0.261940D+00  0.221488D+00
     11   0.361055D+00  0.221442D+00
     12   0.452445D+00  0.221397D+00
     13   0.934501D+00  0.221351D+00
     14   0.104174D+01  0.221306D+00
     15   0.104598D+01  0.221261D+00
     16   0.117907D+01  0.221215D+00
     17   0.134013D+01  0.221170D+00
     18   0.158739D+01  0.221125D+00
     19   0.186954D+01  0.221080D+00
     20   0.191343D+01  0.000000D+00
     21   0.199073D+01  0.000000D+00
     22   0.332010D+01  0.000000D+00
 Prot Eigen 
                 1             2 
      1  -0.978102D+00  0.000000D+00
      2  -0.978102D+00  0.000000D+00
      3   0.596809D+00  0.000000D+00
      4   0.596830D+00  0.000000D+00
      5   0.103633D+01  0.000000D+00
      6   0.103633D+01  0.000000D+00
      7   0.103665D+01  0.000000D+00
      8   0.103665D+01  0.000000D+00
      9   0.105236D+01  0.000000D+00
     10   0.105236D+01  0.000000D+00
     11   0.128778D+01  0.000000D+00
     12   0.128778D+01  0.000000D+00
     13   0.128778D+01  0.000000D+00
     14   0.128778D+01  0.000000D+00
     15   0.133586D+01  0.000000D+00
     16   0.133586D+01  0.000000D+00
     17   0.135416D+01  0.000000D+00
     18   0.135416D+01  0.000000D+00
     19   0.135420D+01  0.000000D+00
     20   0.135420D+01  0.000000D+00
     21   0.146272D+01  0.000000D+00
     22   0.146272D+01  0.000000D+00
     23   0.194768D+01  0.000000D+00
     24   0.194768D+01  0.000000D+00
     25   0.195067D+01  0.000000D+00
     26   0.195067D+01  0.000000D+00
     27   0.195116D+01  0.000000D+00
     28   0.195116D+01  0.000000D+00
     29   0.258942D+01  0.000000D+00
     30   0.258942D+01  0.000000D+00
     31   0.258943D+01  0.000000D+00
     32   0.258943D+01  0.000000D+00
     33   0.259122D+01  0.000000D+00
     34   0.259122D+01  0.000000D+00
     35   0.259641D+01  0.000000D+00
     36   0.259641D+01  0.000000D+00
     37   0.259649D+01  0.000000D+00
     38   0.259649D+01  0.000000D+00
     39   0.293866D+01  0.000000D+00
     40   0.293866D+01  0.000000D+00
     41   0.309944D+01  0.000000D+00
     42   0.309944D+01  0.000000D+00
     43   0.309962D+01  0.000000D+00
     44   0.309962D+01  0.000000D+00
     45   0.317135D+01  0.000000D+00
     46   0.317135D+01  0.000000D+00
 Leave Link  502 at Fri Jun 17 23:34:51 2022, MaxMem= 22817013760 cpu:             177.9 elap:               6.8
 (Enter /sw/contrib/chem-src/gdv/j19/gdv/l601.exe)
 Copying SCF densities to generalized density rwf, IOpCl=** IROHF=0.
 Alpha  occ. eigenvalues --  -20.47950 -11.28438  -1.40630  -0.84690  -0.68483
 Alpha  occ. eigenvalues --   -0.62345  -0.51814  -0.42498
 Alpha virt. eigenvalues --    0.14671   0.26194   0.36105   0.45245   0.93450
 Alpha virt. eigenvalues --    1.04174   1.04598   1.17907   1.34013   1.58739
 Alpha virt. eigenvalues --    1.86954   1.91343   1.99073   3.32010
 Nuclear orbitals not supported in not supported in RdDen.
 Error termination via Lnk1e in /sw/contrib/chem-src/gdv/j19/gdv/l601.exe at Fri Jun 17 23:34:51 2022.
 Job cpu time:       0 days  0 hours  3 minutes 10.9 seconds.
 Elapsed time:       0 days  0 hours  0 minutes  7.6 seconds.
 File lengths (MBytes):  RWF=      6 Int=      0 D2E=      0 Chk=      1 Scr=      1
